default_name                                                                    
55680  0.6010000E+05
  27.4225885  41.4641279  36.4522727  27.8573084  41.2410695  37.3362227
  27.9527990  41.9486586  35.7421976  26.6925165  42.0312776  36.8590223
  26.7794818  40.2991006  35.9353650  25.9735717  40.7421083  35.3502556
  27.7090571  39.4919121  35.0296609  27.0822764  38.7427664  34.5458979
  27.9659883  40.1960800  34.2383083  28.9048768  38.8252782  35.7609072
  29.0602979  39.2651350  36.7460319  28.5798241  37.8165807  36.0157998
  30.4533800  38.7704314  34.8696252  30.9628015  40.4916942  34.9892205
  30.2622660  41.0932979  34.4100601  30.9423102  40.8347892  36.0236123
  31.9446497  40.5158488  34.5164726  26.1994794  39.5002287  37.0505116
  26.7864863  39.4097913  38.1660063  25.1721043  38.7364744  36.7042376
  24.8863994  38.9476937  35.7587964  24.6265866  37.5500111  37.3926141
  24.3576882  37.8719756  38.3986645  23.4462753  36.9177121  36.6100329
  22.7691878  37.7337706  36.3576404  23.9673036  36.5105946  35.7434968
  22.5798061  35.7793910  37.1707361  23.1071906  34.8260474  37.2039377
  21.8048388  35.5665695  36.4343716  21.9049907  35.9662017  38.8549354
  21.0418336  34.4322852  39.2984356  21.1572883  34.2825311  40.3719046
  21.3619386  33.5557762  38.7350833  19.9734077  34.4583104  39.0842189
  25.7030927  36.4779268  37.5806366  26.6363598  36.3637475  36.8433079
  25.5080000  35.5596079  38.5756399  24.6832712  35.6349181  39.1537841
  26.3731258  34.3678677  38.8094686  27.3362041  34.3917646  38.2995576
  26.7821885  34.2690599  40.3331867  25.9026042  34.0510037  40.9388954
  27.6861748  33.0736994  40.6413732  28.7320648  33.1491359  40.3438612
  27.6085777  32.8598000  41.7073596  27.3117685  32.2105758  40.0909755
  27.4911595  35.5570942  40.8483243  28.2277849  35.8887399  40.1165494
  26.8200439  36.4158672  40.8629115  28.0750409  35.3744269  42.2325445
  28.9543261  34.7436735  42.1017483  28.2913138  36.3464597  42.6758046
  27.3614989  34.9398906  42.9326420  25.6147160  33.2000116  38.2621064
  24.4095404  33.1584008  38.4260637  26.2847502  32.3120386  37.4601760
  27.2913697  32.3695175  37.4009024  25.6612019  31.1370545  36.7471604
  24.7964324  30.7844128  37.3092261  25.2812200  31.6758320  35.3002312
  26.2248029  31.7628676  34.7615513  24.7205834  30.8728900  34.8216108
  24.3600078  32.9372310  35.2153183  23.5167231  32.6656023  35.8502897
  24.9649603  33.7617844  35.5924752  23.7571101  33.3072569  33.8394834
  24.4871272  33.8486633  33.2377734  23.4474033  32.3614162  33.3949982
  22.6403545  34.2438830  34.0602165  21.8775660  34.0803771  34.7017144
  22.4447105  35.4433685  33.5304699  23.2195458  36.0420886  32.7042949
  22.8869969  36.9215060  32.3353284  23.9842612  35.5956228  32.2185090
  21.4045385  36.1295108  33.8034802  20.7753575  35.9109049  34.5627185
  21.2119070  36.9257689  33.2127389  26.5053987  29.8408052  36.7995938
  27.5842772  29.8972753  37.1859761  25.9685239  28.6708213  36.3496010
  25.0358724  28.8123220  35.9887150  26.6731065  27.3700999  36.2086815
  27.5248209  27.3026478  36.8855365  26.0239562  26.5477831  36.5095215
  27.1097865  27.0453205  34.7323350  26.2833030  27.0767608  33.8279342
  28.3104021  26.6017494  34.5513767  28.8531833  26.6371878  35.4023954
  28.8806968  25.9295403  33.3756414  28.1224710  25.9824371  32.5943632
  30.1627959  26.5494155  32.8660713  31.0472721  26.3816566  33.4806148
  30.4196218  25.9819493  31.4947540  29.4930016  25.9272838  30.9233680
  31.2100261  26.5203779  30.9718241  30.7716049  24.9547913  31.5904519
  29.9636242  28.0728148  32.6188780  29.0363533  28.3045084  32.0948668
  29.7656377  28.5570912  33.5751090  31.1035837  28.9123298  31.9957064
  31.1708326  28.7788967  30.9159963  30.9977627  29.9914771  32.1068052
  32.0471104  28.6614172  32.4803752  29.0063031  24.4571428  33.6079189
  29.7472742  24.0288672  34.5224862  28.3597223  23.7001129  32.6752462
  27.8980164  24.2420050  31.9588101  28.4746292  22.1196858  32.6255044
  29.1806522  21.8195636  33.3998158  27.1066672  21.5676242  33.0162003
  26.5364387  22.3617677  33.4981500  26.5584503  21.1852689  32.1551753
  27.2848403  20.3890205  34.0502865  27.6864340  19.4476611  33.6752319
  27.8908412  20.6807216  34.9080589  25.9212128  20.0188723  34.6097961
  25.9689229  19.2080699  35.3367245  25.4775520  20.9328551  35.0046386
  25.0704674  19.5581393  33.5411932  24.4149901  20.1821786  33.0928358
  24.9480610  18.4296523  32.9294632  25.7698213  17.4330781  33.2146491
  26.4787683  17.6182164  33.9097879  25.8055697  16.6139186  32.6249033
  24.0901325  18.3062230  31.9021562  23.8870625  17.4023646  31.4997817
  23.4385023  19.0314303  31.6384282  29.1249776  21.5458435  31.3409522
  29.5699605  22.2653980  30.4335652  29.4721088  20.2212784  31.3663828
  29.1835839  19.6784330  32.1677394  30.0204480  19.5376805  30.2215006
  29.2160121  19.3777916  29.5035742  30.8529946  20.0637463  29.7543567
  30.4758042  18.0829455  30.4913488  30.4771366  17.6447304  31.6809180
  30.6452552  17.3456763  29.4038439  30.4653393  17.7687056  28.5045239
  30.8922374  15.8825714  29.4034678  31.2989942  15.6019753  30.3750205
  29.5159105  15.3209051  29.3176871  28.8275368  15.6487820  30.0966223
  29.1160371  15.5577126  28.3317241  29.6121501  14.2381305  29.3979188
  31.8849683  15.3926907  28.2917130  32.0135115  15.9768860  27.2179865
  32.6670460  14.3466706  28.6283785  32.5141721  14.0021410  29.5654105
  33.6208165  13.6310726  27.7268735  33.1905168  13.6262332  26.7254129
  34.9477024  14.3272763  27.6233564  34.8309891  15.3822812  27.3754756
  35.7581662  14.2423483  28.9503189  36.7042266  14.7806365  28.8927377
  35.1081651  14.6774999  29.7094283  35.9082370  13.1897640  29.1904253
  35.8104763  13.7655259  26.5810311  36.4623772  14.4146913  26.3067854
  33.8133392  12.1435145  28.0914168  33.2310012  11.7075597  29.0354551
  34.6005992  11.3739512  27.3718354  35.0452137  11.8127576  26.5781938
  34.7874175   9.9516988  27.6286201  34.6546909   9.7230717  28.6860796
  33.8282149   9.0993389  26.8401632  34.2281052   8.1210855  27.1070121
  32.3357177   9.0988203  27.2366179  32.0931469   8.7967637  28.2554495
  31.8122434  10.0502487  27.1424947  31.7645668   8.4547673  26.5679757
  33.8908069   9.3463155  25.4658440  34.4763640   8.7521189  24.9908137
  36.1797217   9.5219545  27.2786130  36.7369303  10.0823826  26.3144677
  36.7360330   8.5037755  27.8625743  36.2664783   8.1553176  28.6861005
  38.0041568   7.8351349  27.5040676  38.4830079   8.4630929  26.7527485
  39.0393943   7.8723667  28.6850862  39.9932230   7.4456863  28.3748188
  39.3685514   9.2844643  29.1900870  39.7973944   9.8452069  28.3595700
  38.4891286   9.6959148  29.6854900  40.2686348   9.2669016  29.8046133
  38.5999913   7.1286984  29.9211779  37.7510528   7.7140802  30.2743560
  38.3584267   6.0965866  29.6672248  39.4405765   7.1663906  30.6140674
  37.8543650   6.3456626  27.0232599  36.9165430   5.6551825  27.3112295
  38.8950629   5.7776488  26.3447016  39.6063360   6.3681571  25.9378962
  38.8844145   4.3084856  25.9246462  37.8493933   3.9765326  25.8431700
  39.3941450   4.1639850  24.5350268  40.4326993   4.4935851  24.5645022
  39.3875943   3.1255803  24.2037057  38.6178168   4.9038108  23.4942196
  38.7498762   5.9515582  23.7641931  39.1194607   4.7165440  22.5448062
  37.0858216   4.5716723  23.5217494  36.2268756   5.4756685  23.4446360
  36.7117090   3.4200760  23.6204644  39.5476011   3.4262535  27.0089729
  39.5134437   2.1635164  27.0035726  40.2788816   4.0492716  27.9410974
  40.2580855   5.0578367  27.9907348  41.1221373   3.3374760  28.9008241
  40.6608146   2.3800925  29.1431011  42.6135851   3.1304348  28.4115635
  42.9392941   4.1423133  28.1704855  43.1746502   2.6746565  29.2273896
  42.8079593   2.2641819  27.1882416  42.4310716   1.2703321  27.4297333
  42.3618015   2.7265755  26.3077660  44.2972235   2.1101211  26.8673451
  44.8928576   1.7332266  27.6987721  44.3643377   1.4331516  26.0156950
  44.8676879   3.3962830  26.4312261  44.3308180   4.0143076  25.8396889
  46.0990773   3.7941444  26.7929694  47.0148345   3.0707266  27.3506186
  47.8453421   3.5022587  27.7302768  46.8013379   2.1236623  27.6291655
  46.5094498   4.9670717  26.5422178  47.4290587   5.2340982  26.8633488
  45.8698570   5.7209861  26.3357370  41.1743839   4.0793842  30.1974922
  41.3408753   5.2837574  30.2165717  41.1619346   3.2752291  31.2639626
  41.0388813   2.2849492  31.1080669  41.1576542   3.7167721  32.6563920
  40.6318506   4.6714568  32.6708004  40.4140417   2.6229133  33.4729178
  39.3704863   2.6302201  33.1582104  40.7263933   1.6400865  33.1199474
  40.5344615   2.8905561  34.9555194  40.6997684   4.0797654  35.3539667
  40.2985285   2.0033131  35.7784397  42.6575894   3.9528368  33.1612095
  43.2313523   3.0762021  33.8053864  43.2787117   5.0774252  32.7227331
  42.7327840   5.7283140  32.1764669  44.6683946   5.3782796  32.9334779
  45.0689626   5.1049172  33.9096584  45.5137968   4.5890480  31.8513351
  45.5874330   3.5170527  32.0343756  45.1207018   4.8572925  30.3912379
  44.1071677   4.5070982  30.1957579  45.4007160   5.8913910  30.1904101
  45.7150051   4.2717793  29.6897540  46.8544942   5.1016292  31.9688039
  47.2955593   4.6488037  32.6913075  44.8166227   6.9322891  32.8890748
  43.9999869   7.7161923  32.3770534  45.9094441   7.3935485  33.4528307
  46.4592437   6.6755758  33.9026481  46.4510283   8.7477570  33.3810822
  45.7021925   9.4076426  33.8191423  47.6661142   8.7364924  34.2828108
  48.1697470   7.7843671  34.1157443  48.2990097   9.6065160  34.1078571
  47.4310688   8.8469416  35.7706857  47.0320493   9.8366301  35.9929480
  46.6591644   8.1242769  36.0352974  48.6935151   8.6958912  36.7145027
  49.6041327   9.5461155  36.5432465  48.6461464   7.7922642  37.6522784
  46.6816425   9.2032009  31.9294053  46.5536585  10.4539853  31.5985665
  46.9539633   8.2547826  31.0008200  47.0220096   7.2732384  31.2289443
  47.2830497   8.6381670  29.6297858  48.0494628   9.4115650  29.5791212
  47.8854842   7.3538021  29.0279315  47.8741693   6.5003141  29.7058183
  47.2701101   6.9912577  28.2045384  49.3407679   7.4699275  28.5655685
  49.5444358   8.2602629  27.8430802  49.8858530   7.8070645  29.4472322
  49.9319435   6.1635598  28.0476697  49.1878965   5.3107580  27.4283608
  51.1606019   5.9807874  28.1817593  46.1318761   9.1555466  28.7933640
  46.3030898   9.6189821  27.7043431  44.8662687   9.1484044  29.2937671
  44.7904454   8.7297332  30.2097722  43.5849488   9.6011862  28.6345817
  43.8134343  10.1098189  27.6979981  42.7966551   8.3213486  28.2689948
  42.4465215   7.9180700  29.2191913  41.9582535   8.5767359  27.6209516
  43.6324968   7.1614985  27.6425702  44.4858261   6.8358686  28.2374603
  43.0564804   6.2417493  27.5407436  44.1386294   7.6094110  26.2027324
  43.4192586   8.3116218  25.4877367  45.1551190   7.0970591  25.6559467
  42.8670930  10.4503215  29.6078497  42.4724943  11.5381336  29.1760896
  42.7523815  10.0895871  30.8782225  43.0965963   9.1687966  31.1100948
  41.8689417  10.8228129  31.7801018  40.8315599  10.8262219  31.4455392
  41.7940916  10.1484343  33.1540288  42.8238855   9.9092600  33.4194089
  41.2096465  10.8900829  34.3317285  41.0786508  10.3441032  35.2659891
  41.8097103  11.7509555  34.6265541  40.2155953  11.2991348  34.1510662
  40.9806553   8.8027067  32.9265787  39.9482525   9.1340455  32.8149570
  41.2392028   8.2574998  32.0188329  41.0618829   7.7200415  34.0035166
  42.1063739   7.5311276  34.2514018  40.5382948   8.0577568  34.8978900
  40.6827045   6.7899853  33.5800486  42.4481367  12.2599996  31.8817673
  41.6932680  13.2487909  31.8932782  43.7577111  12.3698017  32.0884338
  44.3060402  11.5237298  32.0284534  44.4159602  13.7246868  32.4267470
  43.9009650  14.2721637  33.2161448  45.9000385  13.5005081  32.8063184
  46.3149883  12.7943381  32.0871201  46.4446180  14.4273294  32.9866948
  45.9558373  12.7495675  34.1215544  45.5255318  11.7522289  34.0307058
  47.4445202  12.5615748  34.4970478  47.7905599  11.9589979  33.6572485
  47.9880259  13.5039315  34.5653563  47.6395939  11.9208079  35.3569687
  45.2898563  13.4799185  35.3778366  44.2256570  13.5856978  35.1671228
  45.4878629  12.8529040  36.2471738  45.8327424  14.4054344  35.5696572
  44.3458974  14.5863998  31.1566986  43.8179839  15.6728601  31.1526148
  44.6746503  13.9362465  30.0337219  44.9764758  12.9726557  30.0559516
  44.5412409  14.6324556  28.6844844  45.1357710  15.5460417  28.6843715
  45.1646113  13.6843673  27.5757328  46.2269153  13.6503711  27.8175072
  44.8168726  12.6552760  27.6660037  45.0410248  14.3431076  26.1645465
  45.5908674  13.7516843  25.4324320  44.0130660  14.3786209  25.8037940
  45.6567293  15.7067319  26.0997142  46.6986759  16.0598768  26.6623291
  45.1422677  16.6399855  25.3673400  44.2969603  16.3957046  24.8714749
  45.6195904  17.5218982  25.4877401  43.0751974  15.0418461  28.1960579
  42.8881124  16.2279170  27.7636164  42.0475078  14.1083811  28.3563986
  42.3746560  13.2765994  28.8267318  40.6369522  14.3527660  27.9769200
  40.5763542  14.9143745  27.0447056  39.8614789  13.0844414  27.9490779
  40.2183601  12.4511937  28.7613115  38.8587739  13.3315720  28.2978047
  39.7520680  12.3468825  26.5833581  38.9761095  11.5927375  26.7147191
  39.2855852  12.8940898  25.7641768  41.0045545  11.5522932  26.1487845
  41.8135082  12.2828231  26.1443238  41.3553631  10.7760018  26.8287903
  40.7570697  10.9563158  24.7677005  40.0055820  10.1863220  24.9422824
  40.3520259  11.7107982  24.0933149  41.8858784  10.2571627  24.1994782
  42.6024382  10.8918321  23.8772410  42.3760794   9.6793761  24.8672890
  41.5855087   9.7125618  23.4036841  39.9376319  15.3033679  28.9309683
  39.0483626  16.0410239  28.5570783  40.3722580  15.3783103  30.1697256
  40.9530208  14.7269473  30.6781948  39.9652217  16.4598868  31.1298702
  38.8838922  16.3612574  31.0344819  40.2934000  16.0990034  32.5308921
  41.3709910  15.9930138  32.6560570  39.8864592  17.1799405  33.6010036
  40.6145797  17.9909525  33.5866197  38.9361341  17.6275660  33.3101195
  39.8600242  16.7886203  34.6179938  39.7210051  14.8924619  32.9977141
  40.4258571  14.2784996  33.2164240  40.4524997  17.8143622  30.7153973
  39.7051590  18.6897864  30.4284927  41.7564590  17.8763600  30.5601993
  42.2824530  17.0917329  30.9176775  42.4275068  19.0972935  30.1290467
  42.3261323  19.8431086  30.9174521  43.9284785  18.7922935  29.9149042
  44.3205891  18.0737175  30.6346249  44.0910742  18.2981954  28.9570252
  44.7153649  20.1694958  29.8321925  44.3635692  20.7816461  29.0017638
  44.5561836  20.7828788  30.7190573  46.1990679  19.8634481  29.5858332
  46.8808340  20.7120076  29.6427918  46.4374769  19.2139391  30.4280915
  46.5753327  19.2287522  28.2038688  46.1494136  18.2476410  27.9938340
  46.2027622  19.9175617  27.4456916  48.0091362  19.1049527  28.0619693
  48.1933695  18.7764132  27.1248354  48.4730022  19.9873215  28.2243225
  48.3623724  18.3384969  28.6168295  41.8823884  19.6506579  28.7470235
  41.8058284  20.8712234  28.6132674  41.5416512  18.8112321  27.7535112
  41.8910823  17.8656058  27.8150634  40.8362826  19.1510088  26.4849853
  41.3926250  20.0226298  26.1402246  40.8599551  18.0648415  25.4640666
  41.9102518  17.8418574  25.2762996  40.2430375  17.2197389  25.7695402
  40.1889424  18.5622579  24.1554521  39.2000458  18.9566483  24.3892033
  40.8362278  19.3338799  23.7386531  40.2212659  17.5315638  23.0646217
  40.9480191  16.6089336  23.1047488  39.2608875  17.5315422  22.1433157
  39.4158182  16.8717617  21.3944591  38.6339189  18.3224647  22.1052043
  39.4212355  19.6792761  26.7959360  39.0554520  20.7607251  26.3338114
  38.5658473  19.0166494  27.5428053  38.8520284  18.1116331  27.8879805
  37.1998953  19.3976033  27.8194770  36.6528563  19.5966816  26.8979477
  36.4648713  18.2587308  28.4937058  36.2939084  17.4290628  27.8077593
  37.0059428  17.9727349  29.3956776  35.0741528  18.7296940  28.9420488
  35.1847883  19.6522802  29.5118765  34.1970675  18.9352164  27.7142372
  33.4134723  19.6416578  27.9881386  34.7964215  19.2655136  26.8658399
  33.7051264  17.9802558  27.5294557  34.3662333  17.7444932  29.9448076
  33.4741023  18.2589343  30.3019527  34.0429091  16.8557143  29.4029248
  35.0861131  17.5115518  30.7294170  37.1815149  20.7845835  28.5464934
  36.4817411  21.6820140  28.0802978  38.1655687  20.9465137  29.4379751
  38.6713817  20.1049706  29.6747417  38.3648188  22.2052709  30.1304130
  37.4241527  22.5986615  30.5157619  39.3346926  21.9031795  31.2603022
  38.8626879  21.1651937  31.9089093  40.2029740  21.4477003  30.7841446
  39.7326239  23.0750030  32.1135349  40.1657505  23.8043199  31.4289912
  38.5700520  23.7143956  32.8122137  37.7579843  23.8349035  32.0951828
  38.2860142  23.0051152  33.5896100  38.9011751  24.6190848  33.3221107
  40.7969726  22.7126050  33.1580312  41.1840861  23.6424759  33.5746720
  40.2180266  22.2093258  33.9323905  41.5788662  22.0953120  32.7156606
  38.8238828  23.2086352  29.0622407  38.2417777  24.2547912  28.9268632
  39.9198200  22.9839959  28.2889539  40.3049775  22.0508969  28.3218165
  40.3754025  23.9751006  27.2526303  40.6136334  24.9279981  27.7252112
  41.6185136  23.4275921  26.5878539  41.5717165  22.3830640  26.2798397
  41.7859527  24.0453901  25.7055899  42.8876700  23.6022594  27.4353317
  42.6128548  23.3172678  28.4508889  43.5687976  22.8660025  27.0086046
  43.6507876  24.8954530  27.4904545  43.0702452  25.9189936  27.9503205
  44.8425527  24.9513011  27.1106484  39.2956257  24.4699154  26.2725931
  39.3655657  25.6109560  25.8168272  38.2772324  23.5930357  26.0339351
  38.4050083  22.6454134  26.3591816  37.2637605  23.8903973  25.0313200
  37.7306962  24.5334473  24.2852907  36.8485436  22.5576971  24.2794835
  37.7712919  22.0867154  23.9406447  36.4510634  21.8407389  24.9978785
  35.9407741  22.7274352  23.0870688  35.5772155  21.7852440  22.6769457
  35.1529502  23.4016871  23.4229530  36.6874623  23.5115121  21.8933614
  36.9097441  24.5105125  22.2684468  37.6074404  22.9519279  21.7242121
  35.8742331  23.5582596  20.6817300  35.2895471  22.6384419  20.6683638
  35.1209090  24.3296446  20.8416297  36.6365928  23.6962986  19.4385777
  37.4395011  23.0845617  19.4036112  35.9933746  23.4803038  18.6904353
  36.9428911  24.6579824  19.4005560  36.0080298  24.5272327  25.6389871
  35.3957528  25.3866130  25.0654655  35.7365371  24.2808613  26.9491644
  36.1010142  23.4486061  27.3903081  34.8296820  25.0662531  27.8024821
  33.8829818  25.1221354  27.2651320  34.6139540  24.3576016  29.1289985
  35.5567103  24.1004530  29.6118911  33.7871713  25.2091112  30.1339163
  32.8530136  25.5110815  29.6603512  33.5373215  24.6425148  31.0309356
  34.2868022  26.1294793  30.4362342  33.7893108  23.0789217  29.0151084
  32.7230538  23.2566072  28.8750230  34.0106550  22.5218573  28.1047296
  33.9290979  22.1314612  30.1811978  33.4690983  21.1666151  29.9677203
  34.9882612  21.9583632  30.3717503  33.5077150  22.6001788  31.0704859
  35.3908674  26.4822027  27.9303277  34.6489760  27.4370446  27.9188420
  36.7168166  26.5974907  28.1022607  37.3197035  25.7875913  28.0759864
  37.3851205  27.8893464  28.3083368  36.8398433  28.4363777  29.0774512
  38.8332756  27.5466150  28.7756428  39.1190169  26.7148389  28.1317470
  39.8427270  28.6818622  28.5634557  39.6762497  29.3031765  27.6834819
  39.9506416  29.3499114  29.4179543  40.7708353  28.1157444  28.4845505
  38.8145149  27.2048028  30.2991510  38.4236845  27.9941869  30.9411980
  38.1055647  26.4202062  30.5635484  40.1610579  26.7785555  30.8614503
  40.0635276  26.4264570  31.8883955  40.5735583  25.9880429  30.2345267
  40.8240064  27.6433781  30.8876891  37.3292423  28.6881537  27.0582258
  36.9262297  29.8431001  27.1290403  37.7029680  28.1407256  25.9646940
  38.0725136  27.2008020  25.9736234  37.6797863  28.7742375  24.6860046
  38.3740026  29.6140342  24.6559177  38.3001686  27.7065323  23.7376216
  39.2839287  27.3388063  24.0293387  37.5212216  26.9443032  23.7189608
  38.4135978  28.1490174  22.2476224  38.4959412  27.2554791  21.6288259
  37.4808265  28.6340501  21.9599057  39.5406169  29.1145791  21.9190774
  40.6039033  29.0509702  22.4808288  39.3634958  29.9145204  20.9541209
  36.2259670  29.2109534  24.3274272  35.9463127  30.2794318  23.7765781
  35.1611645  28.4620345  24.6609550  35.4704803  27.5324091  24.9063534
  33.8093748  28.7330907  24.2587024  33.8410673  29.0727383  23.2234559
  33.0905649  27.3613341  24.1787417  33.2081877  26.7805313  25.0935822
  32.0173232  27.5417882  24.1180085  33.5300522  26.5633904  22.9438695
  34.5176240  26.8893921  22.6174881  33.5391209  25.5112321  23.2284582
  32.5864498  26.7133661  21.7653241  31.9373866  25.8106294  21.2732959
  32.3308585  27.9262439  21.4164487  33.1593555  29.7651198  25.1231194
  32.3280081  30.5341479  24.6565973  33.5230089  29.7863007  26.4171144
  34.1929023  29.1227409  26.7790967  32.8140368  30.6676592  27.3745990
  31.9408454  31.1082630  26.8934484  32.3163850  29.7321543  28.4355698
  33.2551777  29.3753601  28.8592049  31.7599493  30.3680423  29.1241378
  31.4327876  28.5719078  27.9545699  30.2079251  28.7303439  27.8775870
  31.8943560  27.3877684  27.5897612  31.1961360  26.6655447  27.4849563
  32.9016452  27.3478879  27.5274878  33.7563641  31.7914952  27.8120029
  33.4222088  32.6322835  28.6398325  34.9572708  31.8443560  27.1669825
  35.2307692  31.0505841  26.6055335  36.0001994  32.9400932  27.3312101
  36.9139303  32.6496546  26.8127110  35.4394944  34.2893582  26.7394853
  34.6021280  34.6421601  27.3415221  36.2063785  35.0569052  26.8437257
  35.0590389  34.0571876  25.2868227  35.8423323  33.4359302  24.2859023
  36.7301901  32.9824318  24.4476052  35.0060462  33.4026614  23.1782680
  35.2157279  32.8745813  22.2598100  33.8114521  34.0407177  23.5211966
  32.9980880  34.1276207  22.9287553  33.8184905  34.4769262  24.7975204
  33.0748602  35.0365107  25.3454977  36.3493457  32.9937416  28.7958721
  36.7085199  33.9960380  29.3422232  36.2174444  31.8885098  29.4656267
  36.0660201  31.0251530  28.9638365  36.3039818  31.8167399  30.9356021
  35.7711401  32.6358620  31.4185294  35.7457733  30.4686042  31.3934255
  36.4526304  29.6896897  31.1075142  35.4478122  30.5560818  32.9006693
  35.2864934  29.5792578  33.3566237  36.2753622  30.8730906  33.5353093
  34.5795512  31.1969229  33.0541152  34.5603727  30.2967702  30.6778127
  33.9899088  31.0198601  30.9485745  37.7798944  31.8990786  31.4031899
  38.7133090  31.2669758  30.8038720  38.0525480  32.7171153  32.4114821
  37.3001840  33.1654359  32.9145299  39.3520603  32.7672551  33.2085168
  40.0996140  32.1094326  32.7651928  39.9369985  34.2361432  33.0960141
  39.2196360  34.9551871  33.4915729  40.8574347  34.2596633  33.6794052
  40.2943607  34.6401021  31.6941422  39.3976932  34.8090849  31.0978770
  40.8614212  35.5668275  31.7820498  41.2228355  33.7078828  30.9350081
  42.1465023  33.5629459  31.4953098  40.6885740  32.7591563  30.9858287
  41.4618907  34.2311991  29.5282934  40.7549150  33.7807276  28.8316150
  41.3060177  35.3078609  29.4604289  42.7910757  33.8683969  29.0197746
  43.5221633  34.4010180  29.4691360  42.9673026  32.8806566  29.1355975
  42.8729168  34.1194245  28.0448964  39.0279163  32.2350192  34.5894106
  37.8859895  32.2857646  34.9677379  40.0413696  31.7960174  35.3541885
  41.4558655  31.7478745  34.9371405  41.6930750  32.7707097  34.6444964
  41.6333460  31.1084718  34.0724065  42.2865855  31.3945351  36.1635857
  42.5594880  32.2847580  36.7302673  43.1218558  30.7673817  35.8519735
  41.2550127  30.6218616  37.0416561  41.5183465  30.7042838  38.0961527
  41.1561445  29.5838478  36.7240834  39.9390815  31.2170871  36.6509080
  39.2062736  30.4110124  36.6876006  39.3605441  32.1853399  37.7576074
  38.6166570  31.5934035  38.5560829  39.5925092  33.4687301  37.8098070
  40.1423395  33.9298418  37.0990592  39.1823213  34.3484702  38.9088228
  39.4980384  33.7966112  39.7941897  39.9789741  35.6582922  38.8908484
  39.8736897  36.0341455  37.8731305  39.4253105  36.3668357  39.5069040
  41.4330833  35.4990114  39.2606834  41.4046020  34.8071754  40.1024992
  42.0748354  35.1024133  38.4739407  41.9523653  36.9194907  39.7473560
  41.6612983  37.3119162  40.9133432  42.6993265  37.6062621  39.0331446
  37.6699922  34.6671993  38.9684599  37.1952180  35.0896547  40.0173838
  37.0120346  34.3831850  37.8498871  37.6474333  34.0490064  37.1394695
  35.5675271  34.4582036  37.7248826  35.2104241  35.2890524  38.3333790
  35.2191332  34.7977265  36.2903763  35.6497815  34.0013697  35.6833689
  34.1365126  34.8692184  36.1858656  35.8843202  36.1132301  35.8660655
  36.6494900  36.1312443  34.8972298  35.6162871  37.1762097  36.4995010
  34.8033489  33.2558931  38.2905842  33.6170304  33.3586054  38.6150995
  35.5196377  32.1369894  38.4205353  36.5152246  32.1863881  38.2578497
  35.0080841  30.8159959  38.9264750  33.9778362  30.7571728  38.5754227
  35.8402877  29.6877082  38.3087154  36.8249534  29.6717668  38.7759190
  35.2284363  28.2555381  38.4933371  35.0697767  28.1161458  39.5626812
  34.3019581  28.0873070  37.9443025  35.9443592  27.4924563  38.1879506
  35.9637889  29.7885055  36.7579058  34.9604959  29.8987779  36.3463927
  36.4953109  30.7213232  36.5696371  36.4871575  28.8903013  36.4301628
  35.0403890  30.8658206  40.4788566  36.0727868  30.9799765  41.0855150
  33.8449420  30.6604618  40.9807956  33.1583195  30.2931641  40.3375679
  33.5456397  30.5549138  42.3644114  33.9397284  31.3552487  42.9907166
  32.0044663  30.5017125  42.5381691  31.6197982  29.6369211  41.9975486
  31.5606811  30.2410439  43.9934333  31.6329171  29.1615839  44.1262770
  32.1834779  30.8764610  44.6230913  30.5365618  30.5766005  44.1567967
  31.2780336  31.7642960  42.0302100  30.2061218  31.5864932  42.1168033
  31.5865287  32.4760025  42.7959811  31.5655391  32.1398925  41.0481877
  34.1251064  29.2581891  42.8808804  34.9734005  29.2804406  43.8276572
  33.7689649  28.0719543  42.3034988  33.2040838  28.1660471  41.4715398
  34.1045946  26.6716827  42.7340530  35.1902544  26.6668309  42.8311326
  33.3869457  26.2534437  44.0181077  33.8639241  25.3398865  44.3730792
  33.7181948  26.9380583  44.7989306  31.8868114  26.1841168  43.9471332
  31.4249733  26.6239979  44.8310507  31.5266825  26.7007321  43.0574592
  31.4982795  24.7139799  43.8135981  31.8175516  24.0423920  42.9078397
  30.6410872  24.2685987  44.7349698  30.0721662  23.4455348  44.5971447
  30.3483876  24.9677792  45.4024827  33.7737390  25.7571729  41.5746882
  32.9492139  26.1177911  40.7340083  34.5109539  24.6154022  41.5371568
  34.9609188  24.3843969  42.4113811  34.4084822  23.6496419  40.5134644
  33.5732288  23.8554121  39.8440540  35.6637414  23.5702595  39.6429765
  35.8164299  24.5242690  39.1383458  36.5473468  23.4962905  40.2769154
  35.7387419  22.4371478  38.5569866  35.8025753  21.5423665  39.1761749
  34.7922157  22.5049073  38.0207060  37.2536280  22.6825544  37.5794486
  36.8058945  24.1431396  36.4603690  36.2394453  23.7648808  35.6093957
  36.2635395  24.9136380  37.0083527  37.7251131  24.4972365  35.9937289
  34.1401595  22.2294911  41.0368152  34.9518069  21.7942534  41.8576649
  33.2015450  21.4247154  40.5191615  32.5865859  21.7939212  39.8080937
  33.1742575  19.9910235  40.7275401  33.9514907  19.6948228  41.4320071
  31.8311207  19.6070640  41.3944919  31.0230860  19.6418130  40.6637568
  31.9970566  18.6156581  41.8160127  31.4067317  20.4576584  42.5937329
  31.3261345  21.4954752  42.2704057  29.9954274  20.0746878  43.1160642
  29.2798996  19.9265125  42.3072601  30.0714576  19.1102808  43.6183014
  29.5065202  20.8659433  43.6843815  32.3759562  20.3303619  43.7763957
  32.3566749  19.4367838  44.4002898  33.3888702  20.6456494  43.5259980
  32.1497290  21.1065552  44.5074590  33.4977686  19.2625920  39.4421289
  33.1657640  19.6842762  38.3366578  33.9511714  18.0437430  39.7057741
  34.0340036  17.7096241  40.6553021  34.1739234  17.0568591  38.7324680
  33.6087871  17.3319730  37.8419437  35.6383477  17.0071704  38.3081423
  36.3811974  16.7986905  39.0780844  35.8073123  16.1519720  37.6537826
  36.0985151  18.2269844  37.4668455  35.1239712  18.7017879  37.3531533
  37.0716008  19.1483812  38.3132702  38.0591302  18.6908015  38.3725394
  37.2907652  20.0036513  37.6740664  36.6571267  19.4267477  39.2821992
  36.5291456  17.8849441  36.0678068  35.8083061  17.2934441  35.5033474
  36.6566282  18.8661168  35.6104795  37.4857905  17.3664438  36.1316965
  33.7796064  15.6329363  39.1781509  33.7078903  15.2921771  40.3477743
  33.3941982  14.8195420  38.1811489  33.2318989  15.3583735  37.3424478
  32.9468186  13.4435669  38.3322531  33.3037516  13.0098361  39.2663711
  31.4317494  13.3795082  38.3663764  31.1024155  12.3427501  38.4354539
  30.9517499  13.8952944  39.1980409  30.8732085  13.8045672  37.1515104
  30.8011864  13.0331834  36.5846063  33.4431260  12.5297124  37.2584507
  33.8369343  13.0029395  36.2053090  33.3635960  11.1927442  37.5104085
  33.0918268  10.9236285  38.4451910  33.7204903  10.1053170  36.5448711
  33.2232074  10.3196434  35.5988934  35.2153167  10.0773667  36.4089155
  35.5570827  11.0958319  36.2244576  35.5798542   9.6832779  37.3575493
  35.4678836   9.4357443  35.5647347  33.1399759   8.7468080  36.9053743
  33.1522605   8.3861069  38.0723334  32.6091973   7.9320354  35.9222498
  32.7523159   8.2341515  34.9691796  31.7569618   6.7587490  36.2027211
  31.0327881   7.1261182  36.9298472  31.1373589   6.1490949  34.9021156
  30.6140932   5.2062913  35.0615473  30.2715838   7.1509749  34.2509629
  29.8285857   6.6888858  33.3687366  29.4024232   7.5472447  34.7759677
  30.8522020   7.9700449  33.8265624  32.1426523   5.8945860  33.9793772
  31.9654784   5.0345753  33.5913153  32.7002842   5.7369474  36.8531966
  33.9126575   5.8064552  36.7509270  32.1541265   4.6671309  37.4945285
  30.8214308   4.7040329  38.1175217  30.0743339   4.5200144  37.3454567
  30.6697127   5.7086078  38.5123773  30.7919781   3.6842180  39.2453163
  29.7994673   3.2610696  39.4001348  31.1147538   4.1302262  40.1860567
  31.8877436   2.7572238  38.8595772  31.4763729   2.0429340  38.1463703
  32.3743820   2.2718224  39.7055524  32.9499285   3.5934312  38.1097741
  33.5335158   4.0592556  38.9038355  33.7630774   2.6880347  37.1827229
  34.7221560   2.0202086  37.6543177  33.5445434   2.7753129  35.8528794
  32.7366994   3.2485173  35.4739757  34.4532973   2.2237174  34.8340496
  34.4418610   1.1345897  34.8761224  34.0388583   2.5389074  33.3837814
  34.2239149   3.6064792  33.2648379  34.6252250   1.9487482  32.6795186
  32.4697657   2.4353250  33.1189551  31.9282655   1.3696497  33.0378240
  31.7483946   3.4743033  33.0989149  35.9660003   2.6205700  34.9820797
  36.9303751   1.9456733  34.5497274  36.1819445   3.8166311  35.5365807
  35.3233768   4.2371293  35.8623763  37.4256000   4.5952108  35.7170489
  38.3042376   4.0878724  35.3186726  37.1996021   5.9621907  35.0948604
  36.4154118   6.3535179  35.7429412  38.1467130   6.4998896  35.0505230
  36.6039800   6.0561668  33.6737616  35.6745607   5.4884548  33.6291966
  36.4437496   7.5308432  33.3473553  37.3032523   8.0863811  33.7224839
  36.3533585   7.5792953  32.2621906  35.5515853   7.8664086  33.8760695
  37.6347896   5.4570431  32.8167103  37.7880669   4.3837861  32.9295418
  37.2682028   5.5857283  31.7983026  38.6049103   5.9527603  32.8518472
  37.7509360   4.6887833  37.1365993  36.8864029   4.9416929  37.9687225
  39.0411323   4.5206266  37.5114995  39.6944575   4.2699419  36.7831979
  39.5778484   4.5436690  38.9052927  39.0639407   5.3303272  39.4577126
  39.1964255   3.0743365  39.4195650  38.1313890   2.8869361  39.2828961
  39.7152690   2.3459261  38.7964049  39.4148520   2.7412309  40.8642860
  38.4534859   2.8614600  41.8177103  37.5536104   3.3115269  41.7295974
  39.1003532   2.3491133  42.8981121  38.6649691   2.2179690  43.8777252
  40.3903130   1.9415428  42.6030375  41.1336609   1.6967444  43.2414792
  40.6235780   2.2424500  41.3213540  41.5657336   2.1712016  40.7982120
  41.0754460   4.8510385  39.0944870  41.5488573   5.1036701  40.1705290
  41.8394651   4.9154252  37.9462303  41.4298582   4.6636732  37.0580056
  43.2438068   5.3578899  37.8614915  43.7474854   4.5378181  38.3732436
  43.6620300   5.3516925  36.3606286  44.7314543   5.3424918  36.1500357
  43.3762993   4.3981976  35.9164378  43.0988138   6.0440503  35.7348986
  43.7189910   6.6526524  38.3875773  44.8932281   6.6427356  38.8530048
  42.8813928   7.6861251  38.4728855  41.9135439   7.5393224  38.2242544
  43.2496625   9.0117396  38.9199649  43.7777988   8.9325522  39.8701823
  44.2842413   9.6052655  37.9807758  45.0792933   8.8711013  37.8504083
  43.6614439   9.9036217  36.5977913  43.0064584   9.0900143  36.2861255
  43.2200328  10.8980383  36.5315184  44.3816716   9.9948656  35.7847437
  44.9654323  10.8872625  38.4597304  45.8857249  11.1090248  37.9193801
  44.3121379  11.7563150  38.3819191  45.1858699  10.8424567  39.5262667
  42.1092605  10.0208245  39.0764033  41.0954965   9.8797853  38.4105381
  42.1930192  11.0093831  39.9733146  43.0809585  11.0633720  40.4515918
  41.2977922  12.1699617  40.1736580  40.2970813  11.7407741  40.2234150
  41.5808723  12.8098422  41.5055577  42.6347159  13.0826645  41.5610697
  40.9795969  13.7131681  41.6083808  41.2368291  11.9965969  42.7595800
  39.8854536  11.9617800  43.1078911  39.1949772  12.5096140  42.4837751
  39.5546334  11.5333585  44.4156777  38.5809429  11.6777971  44.8600474
  40.5685325  10.9410982  45.1873114  40.2703483  10.5966448  46.1665141
  41.9219543  10.8317689  44.7608293  42.6258568  10.4202536  45.4690573
  42.3076347  11.4355475  43.5229898  43.3545399  11.3179448  43.2851680
  41.4219751  13.1935214  39.0294453  42.4546319  13.8703913  38.8870392
  40.3733271  13.4403246  38.2479338  39.0604417  12.8634221  38.4244808
  38.6310906  13.0439846  39.4099540  39.1459543  11.7960418  38.2207972
  38.1745201  13.5672324  37.4038076  37.7944177  14.4130625  37.9766900
  37.3723742  12.9019946  37.0842444  39.1772642  13.9905351  36.3075491
  38.7622334  14.8733551  35.8212565  39.3654618  13.1337156  35.6606008
  40.4796725  14.2775012  37.0412936  41.2439914  13.9722935  36.3266155
  40.8217671  15.7181409  37.4114880  41.3713395  16.4508350  36.5484161
  40.7385787  16.1863557  38.6570895  40.3800105  15.5243280  39.3303266
  41.1514751  17.5260369  39.1592108  40.6483897  18.2542110  38.5229923
  40.6342902  17.7188006  40.5931675  40.9582020  16.8074065  41.0957029
  41.1112704  18.5222408  41.1544900  39.5494229  17.8008798  40.5266066
  42.6632224  17.7539785  38.9546700  43.0907030  18.9080778  38.8332784
  43.5636114  16.6835864  38.8686834  43.2674193  15.7333022  39.0399444
  44.9663287  17.0150625  38.7735269  45.3117620  17.7251100  39.5249311
  45.7643878  15.7508358  39.0208562  45.5377035  15.0210313  38.2436177
  46.8136188  16.0459966  39.0308982  45.6263722  14.9014894  40.3638559
  45.5260675  15.6663851  41.1339039  44.6428682  14.4423154  40.2639598
  46.7358785  13.9301788  40.5422524  47.0345619  13.4285192  39.6218036
  47.5573816  14.5503749  40.9008500  46.1268397  12.9098396  41.6261309
  45.0731377  12.6909125  41.4532578  46.7135242  11.9982147  41.7394505
  46.2583741  13.5482301  42.9767901  45.5445999  14.2455397  43.1329651
  46.2194408  12.8898746  43.7417428  47.1250759  14.0611429  43.0532652
  45.3958303  17.6922812  37.4840687  46.3720143  18.4211148  37.4560067
  44.5406723  17.4791431  36.4834871  43.7558377  16.8850363  36.7096988
  44.6062982  18.0545984  35.1572971  45.6045174  18.1258218  34.7253413
  43.7690420  17.2479198  34.1820989  43.6529074  17.8590577  33.2870499
  44.3144907  16.3171074  34.0266175  42.7494347  17.0985291  34.5373219
  44.2066591  19.5336830  35.0767159  44.9046314  20.2512321  34.3252531
  43.3073172  19.9736716  35.9675939  42.8753016  19.2701169  36.5493785
  42.8277859  21.3475860  35.9173002  42.5135040  21.6784084  34.9274096
  41.7309560  21.4889621  36.9795115  42.1430430  21.2479086  37.9593989
  41.0689893  22.8858635  37.0855641  40.6518353  23.0690777  36.0953502
  40.3097841  22.8463927  37.8666854  41.7945408  23.6395734  37.3914995
  40.5841954  20.4567296  36.6205884  39.7831564  20.5038666  37.3582975
  40.0929245  20.6139952  35.6603707  40.9147957  19.4224206  36.7155131
  43.9759199  22.3354305  36.2973188  44.2046392  23.2869171  35.5528488
  44.8187175  21.9588561  37.2990349  44.5921526  21.0108271  37.5636278
  46.0321449  22.5782927  37.7308379  45.8885531  23.6469664  37.5713756
  46.3351775  22.3668552  39.2461346  47.2745311  22.8827180  39.4451329
  45.5212184  22.8385026  39.7967052  46.4585655  20.9546946  39.7004406
  45.5652981  20.3791195  39.4577752  47.3425594  20.5056855  39.2476176
  46.7348183  20.9654767  41.2056169  47.5865252  21.6177817  41.3984778
  45.9514387  21.4850576  41.7573909  46.9589511  19.5715144  41.6580560
  47.8800849  19.1576213  41.6405891  46.0028526  18.7128920  42.0484510
  44.7571690  18.9819716  41.9644324  44.1021183  18.2240896  42.0933669
  44.4159728  19.8764967  41.6427026  46.3312563  17.5100840  42.4344288
  45.6140139  16.9188797  42.8295838  47.2795013  17.4114599  42.7679024
  47.2578092  22.3308729  36.8295860  48.3412586  22.8510992  37.1552338
  47.0919153  21.6953312  35.6365592  46.1866139  21.3900746  35.3089196
  48.1598963  22.0140045  34.6380832  49.1893285  21.9318902  34.9868411
  48.0241542  20.8863114  33.5768065  46.9862676  21.0019275  33.2645064
  48.6917166  20.9648605  32.7187328  48.2713877  19.4781718  34.1610786
  47.6795346  19.3475295  35.0670270  47.9369500  18.8086597  33.3686114
  49.6847739  19.0841186  34.5020148  50.5494574  19.9272587  34.6339780
  49.9479221  17.8692448  34.5992055  48.0413449  23.4446715  33.9538292
  49.0271069  23.8891016  33.4149874  46.8960104  24.1205891  33.9589601
  46.0463227  23.7444911  34.3547896  46.6468570  25.4420040  33.3584046
  47.2848873  25.6135479  32.4914611  45.1846149  25.5121325  32.7626444
  44.4619564  25.5950992  33.5744225  45.0605910  26.4298007  32.1876633
  44.6442422  24.2574411  31.9693142  44.4868025  23.3334606  32.5257069
  43.2895064  24.7919879  31.5033059  43.3358745  25.7690184  31.0222989
  42.8295368  24.1442213  30.7570302  42.6002515  24.9695452  32.3288367
  45.5108300  24.0161303  30.7575265  45.0607630  23.2089752  30.1795629
  45.6325377  24.8456702  30.0609989  46.5358348  23.7169019  30.9764680
  46.8136934  26.7434763  34.2551084  46.6955559  26.7245932  35.4817598
  47.1275204  27.8454040  33.5765705  47.0140851  27.8472046  32.5729624
  47.7018329  29.0552054  34.2232931  48.6014021  28.7604787  34.7636760
  48.1602905  30.0733131  33.1483794  49.1010320  29.8094959  32.6651540
  47.3746561  30.2204196  32.4072732  48.4801895  31.2848485  33.8224441
  49.0767063  31.7569677  33.2368917  46.6617935  29.6753416  35.1277273
  45.5820176  30.0733059  34.6409335  46.8454926  29.8202279  36.4344675
  47.7333686  29.4888778  36.7837323  45.9636022  30.3195779  37.4338667
  46.5211103  30.7414329  38.2701269  45.4314183  31.1597183  36.9877227
  44.9553676  29.3253510  38.0302736  44.5421645  29.3428812  39.1741104
  44.6277082  28.3048153  37.2392678  44.9956312  28.2375096  36.3010767
  43.6593467  27.2240010  37.6706177  42.8023300  27.7449914  38.0974577
  43.2518796  26.5207367  36.4131500  44.0952112  25.9736398  35.9917496
  42.5012336  25.8207508  36.7800974  42.4948778  27.2186066  35.3515182
  43.0669168  27.9743312  34.4280250  44.1390665  28.0108475  34.3032489
  42.1806522  28.5464826  33.6291077  42.4394704  29.0758046  32.8087837
  40.8701013  28.3809383  34.1327868  39.5570382  28.8053151  33.7522434
  39.4932949  29.5970912  33.0205143  38.4765022  28.2586562  34.3668007
  37.4628368  28.4737141  34.0624447  38.5937989  27.2400389  35.3496905
  37.7316445  26.8733720  35.8869476  39.9009155  26.9679509  35.8628276
  40.0770074  26.2114554  36.6132384  41.0627394  27.4398285  35.1824602
  44.1458909  26.2760696  38.8224304  43.3231485  25.6945625  39.5041268
  45.4819181  26.3218581  39.2551346  46.1511496  26.9138940  38.7842602
  45.9637065  25.8775681  40.5806618  45.5002821  24.9021391  40.7285672
  47.4450425  25.7151261  40.6232430  47.6389209  25.1271298  41.5203335
  47.8001993  25.1329917  39.7729001  48.2727387  27.0110539  40.7026581
  47.7926049  27.7236823  41.3732795  49.2721198  26.8028884  41.0847634
  48.4989909  27.7446016  39.3814374  47.8776891  27.3877501  38.3683547
  49.2536093  28.8227656  39.3251536  49.6440500  29.0942228  38.4341047
  49.6428598  29.1163515  40.2096824  45.4285917  26.5790985  41.8345648
  45.6438862  26.0075861  42.8768327  44.8744130  27.8078541  41.6941880
  44.8172362  28.1131023  40.7331187  44.1113865  28.3769280  42.7832767
  44.3825012  27.9288930  43.7392377  44.4747842  29.9119911  42.7982257
  44.0582401  30.3562696  41.8942303  43.9840029  30.3367716  43.6738952
  45.9774881  30.2489127  42.8355428  46.6481894  30.2252037  44.1036433
  46.2025317  29.9011764  45.0325111  48.0062967  30.5605883  44.1587188
  48.5095530  30.5416570  45.1141113  48.7628861  30.8994084  42.9950876
  50.0775676  31.0852136  43.0918990  50.6189489  30.6565313  42.4250123
  48.0805371  30.8268359  41.7046750  48.6705000  31.0781509  40.8356615
  46.6709694  30.5058523  41.6491473  46.0869326  30.5213685  40.7408154
  42.5077136  28.2316336  42.7075939  41.7989304  28.6249655  43.6279970
  41.9514288  27.5345758  41.7512563  42.4790333  27.1832276  40.9649435
  40.4989162  27.2219370  41.6995059  39.9574788  28.0920451  42.0708030
  39.9770465  26.8445965  40.2788546  40.4572935  25.9907303  39.8009668
  38.4638175  26.5899859  40.2557985  38.2516460  25.6124208  40.6887531
  37.8804996  27.3861923  40.7182963  38.1425557  26.5807702  39.2142595
  40.0931359  28.1234663  39.4031574  41.1338217  28.3246154  39.1489472
  39.5647341  28.0173552  38.4557219  39.6507701  28.9522900  39.9558452
  40.1307516  26.1239422  42.6325793  40.7732432  25.0401899  42.5485953
  39.1976217  26.2984922  43.5635405  38.3405603  27.5349793  43.7804468
  37.7523071  27.8353986  42.9133789  38.9419101  28.3958147  44.0727496
  37.5091663  27.2558063  45.0089815  36.5066557  27.0272633  44.6472625
  37.4714396  28.1224094  45.6690431  38.2559622  26.0980144  45.7397419
  37.5114805  25.5303818  46.2979911  39.0957102  26.5125301  46.2975053
  38.8928541  25.3181923  44.5931635  39.8396690  24.8823428  44.9120316
  38.0027473  24.2175307  43.9654832  36.9831704  24.4289266  43.3032914
  38.2620926  23.0057460  44.2657051  39.0091582  22.8344076  44.9234559
  37.8666115  21.7870834  43.4929728  36.9206721  21.9870552  42.9896731
  38.9118389  21.3446490  42.5168326  38.9083405  22.2504713  41.9105539
  40.3743645  21.1148565  42.8953979  40.8385092  22.0581465  43.1832759
  40.4841574  20.4317132  43.7376349  40.9178645  20.5844810  42.1134734
  38.4606795  20.1795361  41.6501127  38.9863297  20.1606646  40.6954177
  38.7041347  19.3196640  42.2741720  37.3845119  20.1986092  41.4780676
  37.4981821  20.6405635  44.5375623  38.1423233  20.5235273  45.6442380
  36.4436563  19.8224352  44.3878078  35.8460095  19.9556381  43.5845768
  36.2672639  18.4440171  45.0251387  37.2487143  18.0471047  45.2845911
  35.3938131  18.3828101  46.2560017  34.3433481  18.5877629  46.0495614
  35.5208486  17.0655271  47.1021724  36.5667850  16.9137026  47.3687632
  34.9294569  17.2669182  47.9953677  35.3013880  16.1157821  46.6144004
  35.9032451  19.4748689  47.0632754  36.5107906  20.0259572  46.5644867
  35.6942521  17.5757740  43.8912794  34.8884908  18.0083609  43.0634510
  35.9726187  16.2798772  43.9713376  36.4592762  15.9405805  44.7887373
  35.6674034  15.1376366  43.0885106  35.4295793  15.5205568  42.0960815
  36.8540142  14.2073453  42.9442919  37.2552692  14.0031924  43.9369731
  36.6622095  13.2755123  42.4123138  38.0281806  15.1255237  41.9991630
  38.6318605  15.6884683  43.0496676  34.3500759  14.4110768  43.5659047
  34.4788673  13.3726044  44.2757355  33.1382313  14.9111370  43.1943278
  33.0375921  15.6604975  42.5246783  31.8225316  14.2617544  43.5472303
  31.8653289  14.0649617  44.6184645  30.6596217  15.2576081  43.2467490
  29.8232314  14.9406387  43.8697114  30.9223007  16.2900113  43.4774941
  30.3135075  15.3324428  41.8141652  31.2417798  15.2895279  41.2444557
  29.8244391  14.4268030  41.4553775  29.2676642  16.8065984  41.6004696
  29.7760932  17.1212626  39.8438337  29.5139374  16.2386471  39.2604271
  29.3201533  17.9203894  39.2593551  30.8630339  17.1569265  39.7704048
  31.7322259  12.8545791  42.9318382  31.7544231  12.7406768  41.6841146
  31.5235285  11.7959328  43.6947222  31.3724790  11.9425794  44.6825374
  31.1999092  10.4335124  43.1655676  32.0946797  10.1600475  42.6063694
  31.1299757   9.4862372  44.3545360  32.1139333   9.3958175  44.8147008
  30.4655843  10.0570836  45.0032408  30.4918188   8.1287920  44.0071287
  30.2103500   7.5804307  44.9061143  29.5866669   8.3132904  43.4285376
  31.4858534   7.3765384  43.2099481  32.6931141   7.2033400  43.5812040
  31.1839861   6.8615133  42.0117292  30.2415866   6.9391688  41.6568201
  31.9701974   6.4530783  41.5268038  29.9587232  10.3306112  42.2278614
  28.8703969  10.7627215  42.5571643  30.1792067   9.6505806  41.0503149
  31.0930234   9.2290753  40.9644522  29.2002075   9.5895585  39.9872392
  28.6098139  10.5005201  39.8888267  29.9159963   9.3296639  38.6654619
  30.8196662   9.9365109  38.7221870  30.3617380   8.3362373  38.7156414
  29.1780137   9.3833293  37.3349167  29.8689685   9.0916821  36.5439528
  28.3741537   8.6502541  37.4020727  28.5956823  10.7082018  36.9137906
  28.6516135  10.9425196  35.6393545  28.1570949  11.6088149  37.7190349
  28.2162914   8.4363290  40.3820558  28.8204215   7.3821778  40.6923682
  26.8965175   8.6492236  40.4333123  26.5664978   9.5706294  40.1839162
  25.8346629   7.6713772  40.5102556  25.8957983   6.9971250  41.3645076
  24.5139418   8.3948334  40.6332133  24.3336580   8.7449989  41.6495705
  24.5011182   9.2740781  39.9891128  23.2706545   7.4846924  40.5658001
  23.3653036   6.8385471  39.6930815  23.1270251   6.8823153  41.4628065
  21.8442326   8.4885943  40.3140560  20.4227440   7.3618740  40.2416260
  20.3980372   6.5672994  39.4958727  20.2691723   6.8656559  41.1998976
  19.6581292   8.0526448  39.8862390  25.8830209   6.6913047  39.3203139
  25.7438935   7.1916209  38.1974793  26.0440152   5.3490539  39.5866435
  26.0305089   5.0997653  40.5653022  25.9281694   4.2755190  38.6286626
  26.5751215   4.3746463  37.7570396  26.3073818   2.9370923  39.3010295
  27.2354621   3.0054360  39.8685647  25.5565455   2.7389879  40.0659536
  26.3237664   1.8523804  38.2178761  26.8856238   2.1400672  37.0893825
  25.7335413   0.7897953  38.4989201  24.4940784   4.1984581  38.1301360
  23.6118959   4.0746921  39.0164184  24.2168147   4.4081612  36.8274127
  24.9713341   4.6618291  36.2057592  22.8689849   4.3638984  36.2347657
  22.2105939   3.9811400  37.0145845  22.3854106   5.7090706  35.7970731
  23.1220276   6.2265665  35.1825055  21.0834965   5.6330000  35.0589791
  20.3847259   4.9789397  35.5805351  20.6855121   6.6469380  35.0185031
  21.2944837   5.3266680  34.0344139  22.1234617   6.5677191  37.0605085
  21.2768983   6.1880466  37.6325889  22.9807746   6.6331310  37.7304607
  21.9386256   7.5775032  36.6940884  22.9574521   3.3495237  35.0059396
  23.9606315   3.3595157  34.3216099  21.9032491   2.5594725  34.8116093
  21.0316545   2.6242031  35.3178039  21.8271587   1.4736120  33.8143933
  22.5819477   0.7375250  34.0911062  20.5036810   0.6642944  33.8785152
  20.3850769  -0.0756452  33.0869835  20.2662658  -0.1266061  35.1581626
  20.5026485   0.4192969  36.0715154  19.2169856  -0.4193482  35.1958247
  20.9654245  -0.9505497  35.0153521  19.3978857   1.6420522  33.7566145
  18.6213338   1.1173927  33.9647007  22.1119414   1.8837450  32.3897358
  23.0740809   1.4264744  31.7451133  21.3940661   2.9438234  32.0159311
  20.6454885   3.2185636  32.6358096  21.5608764   3.7902168  30.8514716
  21.7835627   3.2050433  29.9592393  20.6408048   4.3543192  30.6986422
  22.6374920   4.8615707  30.8884514  22.7367818   5.7043108  30.0008046
  23.4799816   4.8040180  31.9398013  23.3493559   4.0928885  32.6450189
  24.6860556   5.6476758  32.1090560  24.4783008   6.7176941  32.1092528
  25.0504232   5.1551644  33.0105929  25.7054898   5.3861515  30.9386335
  26.1160029   4.2646321  30.7398359  26.1720614   6.4774085  30.3130836
  25.8447148   7.3901974  30.5955030  27.2941890   6.4092843  29.3091817
  27.1276837   5.7364429  28.4679534  27.3934668   7.7569933  28.6258282
  26.4415927   7.9514293  28.1316301  27.5517373   8.4219137  29.4749049
  28.6429747   7.9666668  27.6267934  29.5621123   7.5220540  28.0083761
  28.4432048   7.2752600  26.3496081  29.3219074   7.5403364  25.7616264
  28.6128284   6.2418978  26.6520828  27.4804637   7.4442780  25.8672571
  28.6647601   9.4351378  27.2823761  27.6301570   9.6318359  27.0013149
  28.9412656   9.8876562  28.2346742  29.3109896   9.6698997  26.4365796
  28.5917241   5.8950046  29.8846733  28.9177836   6.2832436  30.9662303
  29.1790696   4.8316248  29.2696434  28.9096358   4.5664304  28.3330660
  30.3117898   4.1594957  29.8923263  30.1078595   4.0627766  30.9587024
  30.4756995   2.7667311  29.3145562  30.5150231   2.7542174  28.2253377
  31.4333413   2.4013900  29.6854343  29.4232370   1.7195214  29.8533951
  29.5956750   1.4728175  30.9010127  28.4520415   2.2136183  29.8260531
  29.3899624   0.4374451  28.9926580  29.1225101   0.7259603  27.9761267
  30.3726448   0.0106355  29.1933292  28.2868840  -0.5731246  29.3996464
  28.4528050  -1.5149186  28.8765841  28.5603118  -0.8254622  30.4241776
  26.8507801  -0.2215696  29.2597504  26.5781371  -0.2277395  28.2872651
  26.2330756  -0.8653787  29.7330936  26.6095776   0.6796386  29.6467200
  31.6170068   4.9142063  29.8246044  31.9270775   5.5328206  28.7988041
  32.4602258   4.8795942  30.9048698  32.1531277   4.3778845  31.7258924
  33.7737905   5.6564529  30.8788514  34.3042571   5.6072166  31.8297907
  34.8353737   5.0227823  29.9211776  34.3952469   5.1521633  28.9324155
  35.8091248   5.5017456  30.0236615  35.1130923   3.5181438  30.0144125
  35.6063043   3.3073056  30.9633009  34.1384959   3.0305604  30.0373947
  36.0529254   2.9170939  28.9836555  35.6373521   3.2768142  28.0423794
  37.0886439   3.1516654  29.2293454  35.8292756   1.4448685  28.9984735
  35.9796034   0.9941396  29.9794653  34.8054339   1.2895811  28.6582620
  36.7240054   0.7585989  28.0804478  36.6153404   1.0571548  27.1217214
  37.6690983   0.9270829  28.3943285  36.5242074  -0.2296979  28.0217050
  33.6754644   7.1795305  30.7368895  34.6094790   7.8044605  30.2016404
  32.6038523   7.7598770  31.2298656  32.0080440   7.1268518  31.7440562
  32.4265769   9.1653577  31.1384702  32.9720168   9.5518529  30.2775302
  30.9289595   9.3879625  30.8875411  30.4884352   8.6599698  30.2063179
  30.3439431   9.2178919  31.7913888  30.2662324  10.9518818  30.3082883
  31.2539100  11.2635349  29.4643324  32.9571323  10.0042028  32.2667993
  32.8760325   9.6878637  33.4651973  33.5381681  11.1430285  31.8618163
  33.5159556  11.3975364  30.8846610  33.9986848  12.1535470  32.7932300
  33.8937116  11.8139765  33.8236539  35.5029350  12.4350815  32.6436198
  35.5894964  12.6820769  31.5855040  36.1168941  13.5125576  33.5049846
  35.4008896  14.3264447  33.6191014  36.3292230  13.0031958  34.4449670
  36.9799498  13.9856043  33.0365213  36.4455144  11.1854797  32.6422492
  36.4129207  10.6883409  33.6117287  36.1056954  10.5348136  31.8364779
  37.9064938  11.5137473  32.2815531  38.3311360  11.9930019  33.1636496
  38.5205939  10.6372360  32.0748847  38.0433987  12.1557416  31.4113802
  33.1443643  13.4340431  32.5852903  32.9980819  13.8139689  31.3817306
  32.7384896  14.1519023  33.5975771  32.7789828  13.8113129  34.5475556
  31.9011845  15.3358133  33.5669938  32.0321919  15.7006652  32.5482592
  30.4300055  14.9985954  33.7306219  30.2314648  14.5189454  34.6890673
  29.8064509  15.8924938  33.7153486  29.8306551  13.9773524  32.7176034
  30.0078134  14.3237071  31.6993917  30.2376242  12.9672253  32.7636392
  28.2967489  13.7623268  32.7833438  27.7948487  14.6990727  32.5410616
  27.9909053  13.0809532  31.9894359  27.9262467  13.2771974  34.0878700
  28.5222702  12.5919621  34.5298074  26.9708612  13.7648849  34.8797944
  25.9864452  14.4080421  34.4151713  25.2828675  14.7906490  35.0305547
  25.9727860  14.4804936  33.4078659  26.8887849  13.4153498  36.1225205
  26.0429619  13.6601105  36.6172717  27.4550015  12.6956563  36.5485957
  32.4935765  16.5005135  34.4042142  33.1110865  16.2494016  35.4453083
  32.1313285  17.7443823  34.1798997  31.5283833  17.8513762  33.3767126
  32.4113589  18.9565912  34.9620175  32.8534710  18.6174946  35.8988475
  33.5290020  19.8155674  34.3548880  34.3578991  19.1123638  34.2740529
  33.2217261  20.4054973  32.9558182  34.0943395  20.8789470  32.5058279
  32.8006147  19.5758942  32.3879041  32.4926944  21.2155399  32.9769285
  34.0200073  20.9759665  35.2801329  35.0384045  21.2536215  35.0083336
  33.3799710  21.8560814  35.2180651  33.9893574  20.5682737  36.2905520
  31.1393685  19.6986305  35.2197472  30.1125326  19.5743900  34.5191148
  31.1390279  20.4504353  36.3135353  31.9387123  20.4628441  36.9303423
  30.1887101  21.4584375  36.7167004  29.7168830  21.8379836  35.8103726
  29.1126205  20.6487825  37.4709114  28.6797205  19.9105239  36.7958766
  29.5775051  20.2545709  38.3745622  28.0155214  21.5065874  38.1501203
  27.6472427  20.8767416  38.9599064  28.4296701  22.4224578  38.5717393
  26.5006299  22.0652335  37.3817655  27.1745607  23.5389322  36.5080878
  28.0590668  23.2520040  35.9393840  26.3796418  23.9359650  35.8767647
  27.4484227  24.3514736  37.1810568  30.7558470  22.6086451  37.5680760
  31.1665771  22.3897396  38.7095451  30.8667759  23.8085989  37.0056507
  30.2516132  24.0103664  36.2304315  31.5540030  24.8784609  37.6857429
  31.9349577  24.5657979  38.6579648  32.8716653  25.2066378  37.0145032
  33.4501456  25.8620272  37.6655987  33.5080670  24.3231798  37.0655097
  32.8009914  25.7333876  35.5910347  32.6361040  24.8607967  34.9589763
  31.8261304  26.1764768  35.3875204  34.1470457  26.8350490  35.1108040
  34.3129691  26.0988420  33.4429769  34.2895113  25.0095799  33.4104947
  33.4147295  26.4391328  32.9277413  35.2439010  26.4757168  33.0193841
  30.5871932  26.1012466  37.8578676  29.8325031  26.3369343  36.8643831
  30.6721428  26.8894148  38.9248736  31.4244028  26.6963743  39.5705826
  29.8678505  28.0843916  39.1573482  29.0322620  28.1732801  38.4630927
  29.1199141  28.0841213  40.4637582  29.8022887  27.9543976  41.3037803
  28.2884432  29.2586726  40.8764125  28.8378603  30.1756919  41.0893050
  27.4853673  29.3988462  40.1528653  27.7137702  29.0191084  41.7710968
  28.2454749  27.0168685  40.4598518  28.7858104  26.2534330  40.2435099
  30.7475191  29.3103051  38.9983499  31.8377190  29.3240158  39.5434839
  30.2613089  30.2861226  38.2600984  29.3146287  30.2851978  37.9081104
  31.0514301  31.3197750  37.5694759  31.8097029  31.6940444  38.2572623
  31.7359754  30.6891211  36.3528173  32.4838224  29.9893726  36.7258816
  30.8400180  29.9347211  35.4139509  30.1450639  30.5793104  34.8757652
  31.4721667  29.4683631  34.6583066  30.3527727  29.1651218  36.0126256
  32.5181692  31.6780496  35.4817193  31.9302111  32.4409862  34.9714844
  33.2271716  32.2430760  36.0868322  33.0594737  31.0100459  34.8117488
  30.1962236  32.5023204  37.1633090  28.9570500  32.3599497  37.0209727
  30.7284170  33.7151381  37.1388765  31.6997576  33.9316980  37.3112113
  29.9443207  34.9571545  36.8203058  28.9038295  34.7338169  37.0561009
  30.3296438  36.1000365  37.7308978  29.8418660  37.0293929  37.4368408
  29.9766624  35.9354609  38.7489498  31.8239534  36.4265263  37.5183650
  32.5167422  35.6028180  37.6905543  31.9295416  36.7718869  36.4899306
  32.2996480  37.6052974  38.3878594  31.4313114  38.2264425  39.0666657
  33.5850287  37.8552391  38.3988938  33.8480292  38.7229127  38.8439557
  34.1320212  37.4653938  37.6446260  30.0556712  35.3306692  35.2750118
  31.1484279  35.3609509  34.7173427  28.8873841  35.4676667  34.6195248
  28.0152197  35.5577574  35.1208362  28.7594179  35.7609569  33.1871896
  29.5617968  36.4245998  32.8649069  28.9874648  34.3932464  32.3649662
  29.9803173  34.0212063  32.6178212  27.9528458  33.2999895  32.5002642
  28.0912823  32.4021297  31.8979458  27.7585122  33.0474875  33.5426545
  27.0250765  33.6894273  32.0811196  28.9605677  34.7329196  30.9809396
  29.6784838  35.3361850  30.7753481  27.4092030  36.4036191  32.9122721
  26.4200500  35.9600128  33.4499020  27.4699208  37.3335879  31.9568521
  28.3948435  37.4519918  31.5687817  26.3634854  38.0562767  31.4220558
  25.7315802  38.2660588  32.2850665  26.9403914  39.4766452  30.9709662
  26.1833762  40.2279522  30.7460942  27.4737651  39.8764184  31.8334011
  27.8825173  39.4692378  29.7808658  28.7511608  38.6108421  29.7050802
  27.7871599  40.2863727  28.8488347  25.5852674  37.3975358  30.3050919
  24.4239558  37.7035438  30.1378406  26.0818306  36.1918834  29.8691180
  26.9156585  35.7352412  30.2101590  25.2638925  35.3019653  28.8788752
  25.0920910  35.8448111  27.9494116  26.1781515  34.1771970  28.3611869
  26.5702683  33.6436425  29.2270182  25.4590758  33.1916900  27.4161370
  26.1116848  32.7006881  26.6942496  24.8871838  32.4638769  27.9917478
  24.6986075  33.7016044  26.8247190  27.3675543  34.7972940  27.5386162
  27.6844342  35.6691165  28.1109929  28.1668321  34.1257581  27.2250960
  26.9822168  35.2514033  26.6257089  24.0611381  34.7332380  29.6521202
  24.2511815  34.1565971  30.7246834  22.7964211  34.8336350  29.1177478
  22.4775859  35.6623386  27.9635570  22.8301290  35.2075155  27.0378404
  22.9316006  36.6341316  28.1574359  20.8844473  35.8614928  28.0385743
  20.3734645  35.9853325  27.0837648  20.6564766  36.7388393  28.6438780
  20.4358379  34.6613778  28.7979793  20.1414607  33.8389788  28.1459803
  19.5367038  34.8127429  29.3952620  21.6237651  34.3706135  29.8234268
  21.4809574  34.9039192  30.7632628  21.7055711  32.8879099  30.1159429
  22.3639780  32.1498501  29.4054559  21.0298534  32.4267826  31.1698598
  20.3545182  32.9808282  31.6768666  21.1093363  31.0561586  31.7062405
  22.0101468  30.8661246  32.2897879  20.0498304  30.9557817  32.7943523
  20.4367976  31.6294845  33.5588659  19.0433317  31.1936501  32.4501301
  19.8835995  29.5549088  33.4187742  19.7421104  28.7848178  32.6604599
  20.7759630  29.2141712  33.9438415  18.7398851  29.4276254  34.4542556
  17.6508314  28.7610348  34.2165159  18.8946914  30.0249244  35.5896748
  19.7888458  30.3030237  35.9681597  18.2275456  29.8394582  36.3249427
  20.9431900  29.9148673  30.6190616  21.5446278  28.8853500  30.6254039
  20.0157387  30.1381313  29.6751583  19.3742343  30.9165600  29.7263511
  19.6568316  29.2008656  28.5712018  19.5717631  28.2471935  29.0921431
  18.2130901  29.3692730  28.0226100  17.9278210  28.4562173  27.5000664
  17.6478322  29.5799356  28.9304672  18.0842134  30.6506465  27.1356533
  18.4210328  31.7840542  27.5867238  17.5350982  30.5245035  26.0281903
  20.7911464  29.1544983  27.4696071  20.7956445  28.2267386  26.6451278
  21.6210343  30.2088591  27.3848437  21.3914172  30.9917202  27.9802464
  22.3275812  30.4848386  26.0947389  21.9902374  29.7947587  25.3213769
  22.1373764  32.0011161  25.6757374  22.3750821  32.6689072  26.5037785
  22.7990308  32.2666776  24.8512433  20.7007021  32.1890633  25.1865895
  20.0561046  32.0983025  26.0608645  20.4789894  33.2390272  24.9954687
  20.3739706  31.4085204  23.9063277  20.8010284  31.6884303  22.8165230
  19.6848617  30.3037486  23.9424339  19.3320635  30.0521322  24.8547514
  19.4411612  29.7888120  23.1084373  23.7929131  30.1557371  26.2687452
  24.5254243  30.1914940  25.3144117  24.2795740  29.8155530  27.4875366
  23.6091150  29.9735599  28.2261977  25.6217559  29.3754240  27.8226697
  26.1784227  30.2677721  27.5364232  25.6966102  29.2658725  29.3803569
  25.0168005  28.4817472  29.7136829  27.0835686  28.7793557  29.8150102
  27.8838576  29.4811429  29.5802070  27.1090708  28.7253738  30.9033740
  27.3774685  27.7912236  29.4610108  25.3403687  30.5501817  30.2056169
  26.0766796  31.3157265  29.9608964  24.3831640  30.9220527  29.8401433
  25.2350742  30.1256370  31.6787968  24.6378842  29.2187876  31.7741323
  26.2123882  30.0531217  32.1559749  24.6594623  30.9166787  32.1594496
  26.0127048  28.1188931  27.0744148  25.1723541  27.2180792  26.9473121
  27.3124890  28.0593961  26.7462107  27.9610121  28.7331176  27.1278089
  27.7525372  26.9912221  25.7729751  26.8689255  26.5818005  25.2833790
  28.6251619  27.6130859  24.7557866  29.5129147  28.0953124  25.1649973
  29.0014027  26.8056825  24.1275807  27.9033724  28.6209025  23.8663075
  27.0157586  28.2316261  23.3676036  27.6197696  29.4359368  24.5321812
  28.7897548  29.0617614  22.7341061  28.1667496  29.5216135  21.9669682
  29.5778352  29.7220811  23.0960596  29.3107079  27.9135932  21.9947241
  30.2968315  27.7601878  22.1500533  28.6239229  27.1790224  21.0987870
  27.4377142  27.4565943  20.6938073  27.0270338  26.7044486  20.1592810
  26.9668053  28.3331035  20.8672339  29.1846649  26.1434857  20.5063227
  30.1209859  25.8395453  20.7322151  28.5602785  25.5835673  19.9435323
  28.3158463  25.7364693  26.4480051  29.5451752  25.4834601  26.4020751
  27.5186492  24.9761732  27.1873864  26.5498472  25.1167661  26.9388778
  27.8893052  23.7152117  27.9010688  28.6814121  23.9828001  28.6003994
  26.7748106  22.9923559  28.6451823  26.0900985  22.5390403  27.9284017
  27.2344104  22.1732646  29.1983165  26.0527459  24.0014364  29.4904430
  26.6189436  25.0412878  30.3546188  25.5793530  25.6812763  30.9597885
  25.6372147  26.5301296  31.6249954  24.4755863  24.9977375  30.6568261
  23.6008662  25.1959649  31.1212297  24.7534570  23.9650379  29.7166844
  24.0204780  23.3175965  29.2584690  28.5692053  22.7404740  26.7611649
  27.9788692  22.6514655  25.6463449  29.7395703  22.1371252  27.0666581
  30.2197403  22.3041472  27.9393782  30.4780996  21.4128976  26.0167819
  30.1244890  21.6976305  25.0258290  31.9427698  21.8434565  25.9154656
  32.3444390  21.7611937  26.9254136  32.7881843  21.0540710  24.8540869
  32.4477941  21.0385644  23.8187166  33.7966946  21.4664562  24.8233380
  33.0261496  20.0847733  25.2922003  31.9176812  23.3666765  25.3326089
  31.2347477  23.9193380  25.9778001  32.8582771  23.9166473  25.3024098
  31.5459304  23.2413790  24.3156517  30.2291434  19.8922839  26.0854584
  30.6565970  19.3563627  27.1321262  29.8855889  19.2672569  25.0297958
  29.7339431  19.8733864  24.2362523  29.8774433  17.7819000  24.9200269
  30.1733251  17.3469105  25.8746686  28.4593147  17.2920832  24.5707551
  28.2189696  17.7654735  23.6187909  28.6116134  16.2175771  24.4690056
  27.3903579  17.5160113  25.6599989  27.2237096  16.5500884  26.7421285
  27.7625664  15.6160640  26.6818640  26.1471866  16.6817648  27.6068896
  25.8731312  15.9495037  28.3519344  25.3657057  17.8592716  27.5861801
  24.3071575  17.9233228  28.4824584  24.3118680  17.2604575  29.1768557
  25.6287008  18.8441841  26.6080562  25.0090134  19.7203099  26.4864230
  26.6982338  18.6944285  25.7547635  26.9693955  19.4163107  24.9986170
  30.9521476  17.2616766  23.9643634  30.9640583  17.8486089  22.8437540
  31.8931507  16.3179112  24.3864951  31.6569861  15.9323396  25.2896344
  32.9420728  15.7924472  23.5175648  32.7692586  16.1646888  22.5077770
  34.3165002  16.3160184  24.0652869  34.4755484  15.9672289  25.0856544
  35.0503568  15.7969795  23.4487213  34.6845007  17.7686961  24.0298338
  34.0061100  18.2475414  24.7359452  36.0968569  17.9149298  24.5564078
  36.8064328  17.3966977  23.9113996  36.4346244  18.9512758  24.5566485
  36.2175848  17.5462434  25.5750327  34.5381313  18.3065033  22.5751212
  34.9201955  17.5393036  21.9016737  33.4826582  18.3764840  22.3120933
  35.0922844  19.2439434  22.5279944  32.9901047  14.2258844  23.5559881
  32.3874508  13.5974797  24.4107992  33.6756310  13.6751833  22.5746086
  34.2053101  14.2200005  21.9092407  33.9916260  12.2432583  22.3966620
  34.5180642  12.0655441  21.4589091  34.9978253  11.8018171  23.5317880
  34.6396212  12.2149725  24.4747050  35.2530119  10.7445031  23.6030079
  36.3088184  12.5369239  23.4374489  36.1360714  13.6129292  23.4591557
  36.8477816  12.3867149  24.3728931  37.1439078  12.1529819  22.2362532
  38.1531189  11.4389169  22.4250722  36.7977566  12.5940251  21.0889829
  32.6567432  11.5476704  22.3232608  31.8065098  12.0483223  21.5534838
  32.5385966  10.3905782  22.9466661  33.3483524  10.1039463  23.4779265
  31.2665353   9.6704024  22.8448542  31.1295713   9.6906814  21.7636837
  31.4989117   8.2550279  23.3029929  31.9121592   8.1840796  24.3091206
  30.4975129   7.8278870  23.2495969  32.3628245   7.4137035  22.3109742
  31.9054914   7.3549547  21.3233027  33.3032470   7.9480423  22.1761086
  32.6774465   6.1100742  22.9823366  33.5338653   6.2800646  23.6348323
  31.8423036   5.6795041  23.5348272  33.2565275   5.0736494  21.9554407
  32.4758592   4.8000387  21.2456531  34.0721713   5.5825598  21.4417916
  33.7026311   3.9692445  22.8704232  34.3735466   4.2152498  23.5841875
  32.9483113   3.6993257  23.4854407  33.9876987   3.2126092  22.2651634
  30.1333814  10.4294489  23.5598246  29.0012377  10.2166845  23.1077617
  30.3667297  11.3365556  24.5147924  31.3372844  11.5478920  24.6977149
  29.2991675  12.0493882  25.2820102  28.5992011  11.3056972  25.6628917
  29.9357640  12.7595519  26.4983473  30.4440992  13.6832598  26.2218276
  29.1167886  13.0610468  27.1514022  30.6897207  12.1349909  26.9774848
  28.4396435  13.0413748  24.5175448  27.4380286  13.4719061  25.0062881
  28.7861128  13.3945659  23.2781582  29.6811354  13.0679871  22.9429179
  27.9103341  13.9419847  22.3009440  27.9103823  15.0209289  22.4557967
  28.4585202  13.8767152  20.8919092  27.7276978  14.3509884  20.2368787
  29.7224690  14.6591307  20.7180370  30.4607502  14.2482496  21.4066708
  29.9990194  14.5374856  19.6707441  29.6383508  15.7305901  20.8996975
  28.6473730  12.4033909  20.3709050  29.3664967  11.9208934  21.0328376
  27.7374559  11.8326860  20.1853066  29.1304621  12.4227340  19.3939973
  26.4311786  13.4131562  22.3206232  25.4947810  14.2203295  22.1834407
  26.2484211  12.1134721  22.7057191  27.0386294  11.4921309  22.6077090
  24.9157373  11.4752257  22.8782862  24.2521129  11.7286878  22.0515700
  24.9953800   9.9533718  22.7578613  24.0277403   9.4519497  22.7391751
  25.8289242   9.3666818  21.5951647  26.8958015   9.5876844  21.6272216
  25.6570232   8.2911171  21.5538006  25.5276651   9.7705546  20.6286091
  25.7755150   9.4795814  24.0618242  25.7868720   8.3923767  23.9845959
  26.7930119   9.8561146  23.9568304  25.1656922   9.7281537  24.9304023
  24.1549754  11.8472724  24.2059860  23.0011207  11.3752242  24.3849829
  24.7854687  12.6698797  25.0542118  25.7848513  12.8046932  24.9979987
  24.1634723  13.2120325  26.2064143  23.3109395  12.5556992  26.3811294
  25.0805716  13.3151861  27.3830800  25.8239515  14.0484333  27.0702943
  24.4825210  13.6872263  28.2149605  25.8119009  12.0225438  27.9150352
  26.4109618  11.5682047  27.1258571  26.8223816  12.3879895  28.9816895
  27.3928153  13.2845193  28.7389144  26.4393434  12.3865999  30.0021697
  27.5273395  11.5579992  29.0290375  24.7814357  10.9983641  28.5014914
  25.3224671  10.0984917  28.7941005  24.2333621  11.4467857  29.3301248
  24.0516670  10.6363565  27.7772698  23.6589586  14.5973373  25.8767785
  22.9013118  15.1361291  26.7078959  24.0621513  15.2088920  24.7539501
  24.5507599  14.6899573  24.0383601  23.6848743  16.6087670  24.4500295
  23.9485617  17.1916004  25.3325680  24.4667704  17.0914582  23.2288201
  25.5528448  16.9993296  23.2213915  24.0939099  16.5673279  22.3488414
  24.3180583  18.6582249  22.9619251  23.2676033  18.9452737  23.0093351
  24.7304900  19.1857451  23.8219963  24.9171879  19.2810580  21.6718405
  24.9282676  20.3695326  21.7284099  25.9516120  18.9375007  21.6657526
  24.2212692  18.7484248  20.5092783  23.2397355  18.9798604  20.4533388
  24.6514593  18.4514009  19.3671339  25.9454879  18.3775099  19.1254568
  26.5835140  18.3843237  19.9083863  26.2976438  18.1552401  18.2053033
  23.8537134  18.2784979  18.3480355  22.8655836  18.4844849  18.3836612
  24.2458234  18.1015137  17.4342377  22.1708299  16.7263781  24.3288976
  21.5869179  16.1214425  23.4056545  21.4903618  17.5904483  25.1323726
  22.0183240  18.3360994  26.2933469  22.8678985  18.9408773  25.9762231
  22.2611373  17.6678656  27.1195462  20.7992392  19.1053038  26.7572486
  20.6210806  19.8937500  26.0260084  20.9206367  19.5383609  27.7501393
  19.6916923  18.1298488  26.6077780  18.7637816  18.6985683  26.6681106
  19.8534053  17.3596662  27.3619459  20.0346758  17.6535960  25.1843406
  19.5946163  16.6582389  25.1233551  19.2957148  18.5128002  24.0872707
  18.0564236  18.3480161  23.9257605  19.9195251  19.5046514  23.4710237
  20.9238453  19.5589556  23.5631753  19.2862734  20.3806247  22.5501448
  19.8781909  21.2926097  22.4725154  19.3386470  19.7071099  21.0995708
  18.8552422  18.7310764  21.1417403  18.7531632  20.2919161  20.3901201
  20.7352616  19.4652618  20.6155501  21.7180305  19.9603431  21.1946828
  20.9372205  18.7365828  19.6263391  17.8637801  20.9845630  22.9314776
  16.9555228  21.0358000  22.0900302  17.7824210  21.4857206  24.1763953
  18.6070837  21.4516140  24.7585193  16.5175331  21.9879179  24.7206340
  15.7310455  21.2628278  24.5113711  16.4842123  22.3265559  26.2351801
  17.2356282  23.1124541  26.3115896  15.5523636  22.7884155  26.5614371
  16.7731062  21.0999089  27.0666854  17.7101739  20.6469938  26.7428458
  16.9472326  21.7121713  28.5399082  17.2812340  22.7464637  28.4575537
  15.9258977  21.7987587  28.9106921  17.5635170  21.1018343  29.2000466
  15.7121765  20.0133835  26.9606609  16.0157192  19.1906494  27.6080206
  15.6194523  19.6894599  25.9240435  14.7517327  20.3561979  27.3455440
  16.1049381  23.2145489  23.9758702  16.9266379  24.0862506  23.6986676
  14.7764570  23.3042300  23.7892901  14.1062678  22.6598132  24.1838447
  14.1170587  24.3759562  23.0231644  14.6649802  25.3181363  23.0098013
  13.9525865  23.8317565  21.6013766  13.7123902  24.6451913  20.9167377
  14.9009853  23.5781072  21.1277714  13.0173983  22.7028101  21.5942375
  13.0991619  22.1836539  20.7908746  12.6682716  24.5711922  23.5757532
  12.1839343  23.7465097  24.3623009  11.9146104  25.5554446  23.0539355
  12.4555299  26.1323278  22.4256744  10.4963378  25.9154097  23.3786988
  10.4344346  25.9373459  24.4667189  10.1695752  27.3397920  22.8475997
   9.1198010  27.6330180  22.8572696  10.6238161  28.0972472  23.4863695
  10.8013101  27.7006023  21.5027378  11.8900528  27.7063484  21.5547659
  10.3520347  26.7535393  20.3454353  10.7617003  25.7511418  20.4698416
  10.7544210  27.1608676  19.4179282   9.2631977  26.7134952  20.3149294
  10.4480533  29.1458307  21.1054805   9.3666167  29.2713079  21.1588808
  10.9589286  29.8438409  21.7687212  10.7267143  29.3341380  20.0686594
   9.4623937  24.8356705  22.9344752   8.2667691  24.9094442  23.2822350
   9.9077484  23.8998088  22.1114052  10.7972867  23.9889694  21.6414349
   9.0305376  22.7742587  21.6688061   8.0020901  23.0370492  21.9164864
   8.9711606  22.5011721  20.1611288   8.5421514  21.5098245  20.0152394
   8.3876739  23.6434968  19.3735555   8.9288725  24.5891783  19.4032059
   8.3707205  23.2230832  18.3680382   7.4029055  23.8999801  19.7641435
  10.2965742  22.3112468  19.6742675  10.2782049  22.3460391  18.7150739
   9.2913644  21.4696981  22.4342104   8.3064179  20.7834234  22.7591923
  10.4638329  21.2458904  23.0268720  11.2088998  21.8608495  22.7322487
  10.7843372  20.3925899  24.1742586  10.3618773  19.4030581  23.9997340
  12.3054307  20.0669939  24.1054590  12.8801349  20.9808814  23.9550416
  12.6287281  19.6404506  25.0550061  12.6868068  19.0759174  22.9801839
  12.3628624  18.0802499  23.2831827  12.2489439  19.2844247  22.0040175
  14.1972670  19.1305399  22.8634316  14.5173246  20.0345202  22.3452784
  14.7378895  18.9978895  23.8005722  14.7255695  17.9731714  22.0154340
  14.4020246  17.0614543  22.5176217  14.3086466  18.0858821  21.0146485
  16.1813769  18.0413500  21.7907321  16.4375025  18.9193128  21.3621519
  16.7364852  18.0656526  22.6341610  16.5448113  17.2404777  21.2941239
  10.3789444  20.9948944  25.5376190  10.1508898  20.1695873  26.4728673
  10.2115483  22.2853163  25.6698059  10.3829073  22.9039027  24.8900062
   9.7350992  22.8963854  26.9863310  10.4278669  22.3786418  27.6497422
   9.9486879  24.4243457  26.9107858  10.9153244  24.6676800  26.4697616
   9.0864261  24.9134227  26.4575662  10.1112764  25.0748956  28.3052819
  10.3314670  24.4449094  29.3051439   9.9963935  26.3547769  28.3082615
   9.7376386  26.7384004  27.4104977  10.4087801  26.9014094  29.0507103
   8.2957060  22.4998001  27.3603982   7.4033061  22.4257770  26.4929829
   8.1435453  22.2008303  28.7287721   8.9895968  21.9468625  29.2184630
   6.8388830  21.8810006  29.2498241   6.3568933  21.2114509  28.5374413
   6.9298150  21.2980048  30.6627864   7.3379638  22.0672660  31.3183499
   5.5733054  20.7745855  31.3278006   5.0750245  20.0256314  30.7122709
   5.7459843  20.3895198  32.3327916   4.8542349  21.5754706  31.4999076
   7.7921773  20.1463849  30.6686780   8.6480350  20.5481867  30.8350000
   5.9901260  23.1222753  29.2931799   6.5008865  24.2406547  29.5260916
   4.6657695  23.0284971  29.0809029   4.2435063  22.1179833  28.9679406
   3.7852433  24.1560601  29.2634270   4.0940468  24.9640853  28.6002250
   2.3736979  23.7350928  28.8131664   2.5162037  23.1821104  27.8847252
   2.0438541  22.9141048  29.4497838   1.2943211  24.8627901  28.5929522
   0.4343777  24.4017965  28.1070681   0.9866081  25.1949901  29.5844440
   1.8351691  26.1011433  27.8209635   2.3333642  25.9299191  26.6539635
   1.7006554  27.1981609  28.3797535   3.7029259  24.6088964  30.6615391
   3.8125611  23.8269668  31.5667479   3.4452956  25.9507159  30.8018619
   3.1001242  26.4660838  30.0047691   3.5592817  26.6309950  32.1038895
   4.4104407  26.2710867  32.6818985   3.6471089  28.1708691  31.8234031
   4.6547243  28.3907566  31.4706135   2.9082844  28.4758733  31.0823077
   3.4138251  29.0212191  33.0902639   2.4446713  28.7709665  33.5217966
   4.4271437  28.7551921  34.1575564   4.5340625  27.6872768  34.3478856
   5.4228510  29.0519898  33.8280320   3.9993190  29.1543521  35.0771964
   3.4124331  30.5190127  32.7247189   4.3816308  30.9919173  32.5662038
   2.7499117  30.6874499  31.8757221   3.0825048  31.0415125  33.6226282
   2.2935454  26.2805788  32.9991658   1.1254046  26.3540498  32.5563216
   2.4631377  25.9570400  34.1909766  28.9448014  42.1944562  44.7043202
  28.9448865  43.1843861  44.9046668  29.1077514  42.0723734  43.7150541
  28.0884214  41.7230634  44.9582938  29.9992742  41.4597047  45.4499247
  31.0238756  41.8009610  45.3021539  29.7672577  41.6198674  46.9685036
  30.0449050  42.6504493  47.1896690  28.7797086  41.3021087  47.3029824
  30.8199335  40.9155039  47.7119849  30.6649415  39.8380061  47.6565237
  31.8190798  40.9806527  47.2812061  30.9584411  41.3995500  49.4888786
  31.6537381  43.0477736  49.2969081  30.9208684  43.8067291  49.0230660
  32.0662695  43.4058183  50.2401588  32.5173782  43.0801853  48.6327045
  30.0018114  40.0103867  45.0899308  28.9320235  39.3341466  45.1746700
  31.2034431  39.5317781  44.7550053  31.9846147  40.1695807  44.6995193
  31.5082611  38.1217467  44.4025227  30.7842221  37.7851184  43.6605277
  32.7990761  38.2219615  43.5957786  32.6744017  38.9150084  42.7637676
  33.6123310  38.5421888  44.2470661  33.2335469  36.8746933  43.0751045
  34.1773048  37.1073259  42.5818463  33.6110533  36.2481745  43.8832277
  32.1286571  35.9946216  41.9414904  33.1565212  34.6534492  41.3897051
  33.9608585  34.9594086  40.7207301  33.4898571  33.9091128  42.1128585
  32.6433752  33.9880354  40.6954388  31.5158421  37.1030642  45.5469023
  31.3120530  37.4555029  46.7018919  31.5120274  35.8056490  45.2008694
  31.5252299  35.6020998  44.2116806  31.3237541  34.7098935  46.1344900
  31.5273764  35.0411822  47.1527659  29.8887343  34.2015447  46.1832950
  29.7785277  33.6387538  47.1102421  28.8323495  35.3287760  46.1889555
  27.8312286  35.0235518  46.4934199  29.1855970  36.1249737  46.8442306
  28.7405372  35.5805187  45.1324016  29.4477255  33.2941991  45.0303774
  29.4719633  33.8578219  44.0977226  30.1397778  32.4599969  44.9151812
  28.0170461  32.6508138  45.0652508  27.2026032  33.3606292  45.2099820
  27.7677517  32.1073364  44.1538864  28.1327518  31.9665041  45.9057462
  32.4223193  33.6083588  45.9747297  32.7731194  33.4479395  44.7886188
  32.8180857  32.9411407  47.0686120  32.3551879  33.2396236  47.9152132
  34.0696392  32.1123174  47.0259768  34.3291929  31.8837667  45.9922900
  35.2186643  32.9237230  47.6604278  34.9415737  33.2830771  48.6514805
  36.1301200  32.3510079  47.8317531  35.7143466  34.1256271  46.8893303
  34.8665794  34.8055924  46.8054220  36.5581378  34.5185681  47.4565284
  36.2021755  33.8329427  45.4360326  37.0819843  33.1896058  45.4484515
  35.4121601  33.2961531  44.9108293  36.5205368  35.0542183  44.6786416
  36.3427791  35.9822641  45.0353394  36.5718558  34.9713144  43.3442914
  36.8146164  33.7925885  42.6994107  36.5564614  32.9184243  43.1344906
  37.0340129  33.8459691  41.7149740  36.5741109  36.0623383  42.6466463
  36.7902351  35.9525989  41.6661624  36.3833231  36.9656733  43.0561410
  33.9392921  30.7571858  47.7527022  33.1712912  30.7167809  48.7376585
  34.6533718  29.7338442  47.1527137  34.9163766  29.8678714  46.1868125
  34.7590355  28.4495315  47.7394041  33.8997175  28.2935112  48.3915775
  34.7554873  27.6823074  46.9651586  35.9869089  28.4018354  48.5895442
  37.0678891  28.5814498  48.0719879  35.8873626  28.1038787  49.8555738
  34.9839184  28.2213452  50.2915673  37.0175015  27.8343411  50.7708484
  37.9650709  28.2139477  50.3886037  36.6397948  28.6571856  52.0847411
  35.8060972  28.1520574  52.5724848  37.8299963  28.6797243  53.0848321
  38.7824558  28.9839245  52.6508041  37.6364737  29.3529884  53.9199156
  38.1045550  27.6936860  53.4595989  36.2483176  30.1486136  51.6624835
  36.4876765  30.3343923  50.6154432  35.1620709  30.0640498  51.6305623
  36.5849318  31.3540454  52.6112145  37.6675280  31.4775413  52.6402963
  36.1184245  32.2186643  52.1390846  36.1712827  31.2425503  53.6134936
  37.0211436  26.3328760  51.1470167  35.9814796  25.7185778  51.5672851
  38.1740618  25.7139785  50.8492062  39.0336887  26.2308116  50.7307788
  38.3184052  24.2858367  50.9597910  37.3247287  23.8571956  50.8295050
  39.1681572  23.7204820  49.8174870  39.9253161  24.4588507  49.5536261
  39.7305661  22.8344024  50.1118663  38.5675186  23.3469775  48.5025420
  38.1338138  24.2597311  48.0940314  39.3948014  22.9445489  47.9179451
  37.4367875  22.2507312  48.5701519  36.5424696  22.7322228  48.9656973
  37.2762752  21.9675490  47.5298906  37.9023852  21.1673928  49.4260134
  37.4973954  21.1539300  50.3511632  38.8054123  20.2402097  49.1641962
  39.4099971  20.0794957  48.0502795  40.0375706  19.2922725  47.9694635
  39.1658917  20.7388160  47.3251478  39.0803687  19.4040056  50.1289015
  39.7745742  18.6842912  49.9868064  38.7017018  19.4617016  51.0634509
  38.9467138  23.8693038  52.2815987  39.7136409  24.6843166  52.8038947
  38.7563078  22.6106135  52.5613827  37.9929318  22.0864159  52.1581756
  39.5181188  21.9621665  53.5557600  40.5699524  22.0969660  53.3036175
  39.2238769  22.4025397  54.5084368  39.2835545  20.4823682  53.6875033
  38.4053986  19.9338987  52.9738477  40.0705286  19.7902019  54.4854652
  40.6455428  20.3212242  55.1238021  40.1920779  18.3764950  54.6296319
  39.2387044  17.8481223  54.6306680  41.0976560  17.8275511  53.4350738
  41.2523321  16.7522553  53.5241015  40.6724377  18.1650095  52.4898688
  42.1193279  18.1834342  53.5678661  40.9434134  17.9658157  55.9895932
  41.9204785  18.6096463  56.4088066  40.4701492  16.7692335  56.4442174
  39.7199355  16.2842041  55.9730211  41.0442598  16.0854189  57.5705077
  42.1002075  16.3386775  57.6650305  40.5788782  16.5677524  58.9762805
  40.5768142  17.6571433  58.9398290  39.1535600  16.0625001  59.2939963
  39.0393082  14.9951904  59.4834654  38.8159044  16.4876530  60.2391596
  38.3807734  16.3229333  58.5707511  41.4725605  16.2100058  59.9956848
  41.1194546  16.6869625  60.7502898  40.8457124  14.5830589  57.4211566
  40.3091833  14.0561352  56.4637473  41.3594255  13.8213264  58.3643796
  41.9719429  14.2125013  59.0657388  41.2847868  12.3465659  58.5684147
  40.5433482  11.9300305  57.8866020  42.6474529  11.7722021  58.0260572
  42.5507699  10.7078891  58.2405153  42.8245891  11.8746779  56.5365633
  43.2476006  10.9708037  56.0981890  41.9481130  11.9528358  55.8933019
  43.4421733  12.7520370  56.3443896  43.6954613  12.3115460  58.7610451
  43.6368933  11.8679399  59.6103882  41.0258349  11.9456858  60.0063762
  41.1679393  12.7807350  60.9449895  40.8516926  10.6032989  60.2294435
  40.8734554   9.9067113  59.4984222  40.3689834   9.9861655  61.4476037
  40.6966057  10.6315577  62.2626083  38.8367956   9.7740718  61.4055760
  38.6209190   9.0750177  62.2135537  38.0591559  11.1101944  61.6741576
  38.6310732  11.6960613  62.3937203  37.9479882  11.6799075  60.7515680
  37.1539552  10.9067430  62.2462760  38.2857103   9.0389613  60.2189606
  37.2007070   8.9998694  60.3156629  38.5307997   9.6129686  59.3253452
  38.6371309   8.0074150  60.1962492  41.1018926   8.6506353  61.5571573
  41.3905930   8.0157444  60.5400917  41.3076992   8.1353874  62.8131313
  41.0197992   8.6771236  63.6154626  41.7730560   6.7544217  62.9060628
  42.2789487   6.4223522  61.9994745  42.7772611   6.7050454  64.0837465
  42.2380872   6.9090360  65.0088300  43.1191016   5.6815961  64.2380095
  43.8671640   7.6629899  63.7852274  43.4756312   8.6775646  63.7114487
  44.4713967   7.7030743  64.6915364  44.8262755   7.2750386  62.6352049
  45.1354432   6.0770655  62.4812232  45.0905883   8.1229628  61.7941138
  40.7391503   5.6807350  62.9962496  41.1685505   4.5439308  62.9532454
  39.4596499   6.0185228  63.1075118  39.2588348   7.0079589  63.0794144
  38.3367331   5.0735497  63.4693331  38.5706441   4.0674248  63.1213411
  38.1693481   5.0323241  64.9739933  38.1140568   6.0291542  65.4114549
  37.3153461   4.4341492  65.2917557  39.3934614   4.3165312  65.6618256
  39.6060684   3.3098533  65.3019674  40.2389383   4.9454567  65.3830363
  39.2837904   4.4171813  67.2139090  38.3290191   3.9813819  67.5081737
  40.0132483   3.7412654  67.6601476  39.4402425   5.8017563  67.7428495
  38.5874589   6.3129171  67.9205423  40.6561819   6.2867876  68.0920024
  41.8085310   5.6117365  67.9623123  41.6843933   4.6525145  67.6714666
  42.6760076   6.0049349  68.2984365  40.7543200   7.4316287  68.6301765
  39.9376447   8.0141473  68.7477249  41.6495575   7.8021707  68.9153930
  36.9706383   5.5374884  62.9816106  36.6064549   6.7152936  63.2382923
  36.0558199   4.6832828  62.4717632  36.3940268   3.7511473  62.2798030
  34.6470264   5.0431121  62.1768506  34.6441571   6.0210857  61.6955406
  34.0594196   3.9649719  61.2168912  34.6708273   3.7123623  60.3505948
  33.8784488   3.0931301  61.8455736  32.6531986   4.4446937  60.7814428
  32.3288553   5.6372913  60.8855350  31.8629189   3.5366934  60.4145963
  33.7868740   5.0855098  63.4972768  33.2752451   4.0762114  63.9803177
  33.6713086   6.2845589  64.0771556  34.2943599   7.0215557  63.7792584
  32.9420374   6.6326334  65.2883130  31.9670576   6.1458856  65.2640017
  33.6373967   5.9492802  66.4707959  33.5656662   4.8729878  66.3141075
  35.0490440   6.1473477  66.9064534  35.2919189   7.2085503  66.9607667
  35.2489011   5.5583274  67.8015592  35.6977500   5.6775479  66.1671506
  32.8540275   6.0663166  67.6444434  32.0743957   5.5737519  67.3776958
  32.8253000   8.1741420  65.4812672  33.7732297   8.9414427  65.2015695
  31.6092637   8.6308381  65.8967883  30.9705680   7.9270837  66.2386912
  31.2363206  10.0384977  66.0989808  31.2416632  10.6387394  65.1891538
  29.7679932   9.9761350  66.6533852  29.1561688   9.4063036  65.9540539
  29.7606317   9.3023917  67.5101908  29.1689459  11.3317928  66.9687320
  29.7150646  11.6296103  67.8638080  29.2233781  12.0182837  66.1238253
  27.6287658  11.0620839  67.2770450  27.0398792  11.6937119  68.2027354
  27.0866751  10.1082514  66.6831090  32.2061890  10.8181378  66.9807906
  32.4316493  11.9683630  66.7898531  32.8152599  10.1043078  67.9131871
  32.5308272   9.1421939  67.7968475  33.7842664  10.6200815  68.8055112
  33.4839137  11.5724725  69.2423633  33.9158976   9.5606265  69.9118891
  34.1614576   8.6462863  69.3717196  34.7838753   9.8531421  70.5027776
  32.7721509   9.3538909  70.8624063  31.9125163   9.1389195  70.2276478
  33.0515619   8.5407774  71.5323884  32.5206662  10.6593957  71.6075863
  31.4731668  11.2959394  71.3614908  33.2275129  11.0624762  72.5474301
  35.1135475  11.0135797  68.1678773  35.9313762  11.6820107  68.8077040
  35.4196524  10.6613117  66.8734378  34.7635293  10.0472980  66.4123632
  36.3987534  11.2149487  66.0154031  37.0763062  11.8635132  66.5707285
  37.2627732  10.1507301  65.3049301  36.6164115   9.5966141  64.6242886
  38.0444399  10.6458024  64.7287353  37.9286280   9.0463934  66.1532587
  37.1243316   8.3782658  66.4611793  38.6416281   8.4590371  65.5746886
  38.6137131   9.5279230  67.3649941  38.3811027   9.0296810  68.5028597
  39.4392017  10.4195056  67.2225565  35.6036425  12.0718484  65.0447244
  35.7413533  13.2749317  65.0286634  34.7237212  11.4412111  64.1645680
  34.5390105  10.4506898  64.2342066  34.2904088  12.0501299  62.8866479
  35.1059890  12.1388107  62.1689679  33.3372340  11.1370952  62.0341519
  32.4664234  10.9726793  62.6687877  32.8955871  11.6532414  60.6786779
  31.9693344  12.1987009  60.8592967  33.6680071  12.3184543  60.2927255
  32.5576495  10.8548160  60.0180584  34.0161345   9.7200916  61.6616576
  34.6448760   9.7620698  60.7722634  34.6125591   9.2933389  62.4680483
  32.9810191   8.5857171  61.4279185  32.6148926   8.2981803  62.4135016
  32.2054918   8.9176977  60.7376658  33.4298499   7.6864037  61.0061532
  33.7820655  13.4482877  63.0559772  34.1434795  14.3649824  62.3864840
  32.8932186  13.6292563  64.0596206  32.7777965  12.8498823  64.6915652
  32.1643956  14.8569601  64.4305537  31.7425458  15.2526654  63.5066706
  31.1093619  14.6045461  65.5596049  30.5369385  13.7115544  65.3086109
  31.6465920  14.3282649  66.4668825  30.2042211  15.7422915  65.8551439
  30.3261310  16.4501443  65.0352744  28.7429493  15.2742116  65.9334591
  28.0901205  16.1461158  65.9747427  28.5471229  14.7386929  65.0044960
  28.5441648  14.6139586  66.7776454  30.4049682  16.3283287  67.2457928
  31.1929838  17.0803149  67.2863897  29.4935450  16.8933067  67.4412822
  30.6411636  15.5905790  68.0126289  33.1914542  15.9471650  64.9868792
  33.1884931  17.1391791  64.6062163  34.0852893  15.6117572  65.9022714
  34.2387877  14.6172733  65.9891046  35.0254881  16.3931491  66.5774806
  34.5104180  17.3284177  66.7967418  35.5016632  15.4869234  67.7991416
  36.1188183  14.6457330  67.4835180  36.2422592  15.9375144  68.4598879
  34.3070951  15.1024168  68.7599641  33.4546928  14.7557700  68.1757151
  34.6578009  14.2158096  69.2882001  33.8288545  16.2654156  69.6202231
  34.4034464  17.3316012  69.6395500  32.7533183  16.0990416  70.3178511
  32.2839190  15.2049638  70.2981227  32.5682248  16.6558508  71.1399258
  36.3394459  16.7883378  65.7949394  36.6460144  17.9979511  65.7033037
  36.9862233  15.8876851  65.1188325  36.7242853  14.9135523  65.1693686
  37.9573158  16.2740612  64.1438425  38.7306247  16.8199898  64.6842639
  38.6803884  15.0412583  63.5255334  37.9218866  14.4734512  62.9866697
  39.4832576  15.3860214  62.8738898  39.1983478  14.2056029  64.6993387
  38.5667987  14.0864092  65.5797025  39.4644741  13.2130321  64.3359104
  40.5325948  14.6415937  65.2063238  41.2350561  14.6270746  64.3729947
  40.5171459  15.7072174  65.4350393  41.1079250  13.8546586  66.3516461
  40.5490171  14.1044951  67.2534837  41.1745632  12.8183344  66.0204489
  42.5514881  14.2428577  66.4910586  42.7268420  15.1723953  66.8450512
  42.9374904  13.6117431  67.1786669  43.0266744  14.1582997  65.6038446
  37.5334893  17.2128433  62.9891038  38.1897674  18.2032420  62.8745113
  36.3748724  16.9327007  62.4016147  35.8685096  16.1931282  62.8671564
  35.7485774  17.7997450  61.3410553  36.4682732  18.0261627  60.5543705
  34.5731760  17.0616736  60.7131527  33.7630096  16.9342731  61.4311356
  33.9422749  17.7295756  59.5104550  32.9935042  17.2451696  59.2796031
  33.7790331  18.7986140  59.6468724  34.5955088  17.5869071  58.6496233
  35.0694030  15.8263209  60.3205230  34.8409829  15.1864467  60.9987454
  35.4476734  19.2260718  61.9712718  35.7329869  20.2253283  61.3111656
  34.9516704  19.3220479  63.2235646  34.6809435  18.4685440  63.6908311
  34.6310933  20.5219552  64.0431488  34.0065043  21.2025426  63.4645390
  33.8791146  19.9503547  65.3331022  33.0057513  19.3479953  65.0831025
  34.4766001  19.3002578  65.9722360  33.2110519  21.0366349  66.1932027
  32.9749995  21.8691229  65.5303718  32.2582397  20.8477947  66.6877613
  34.2523125  21.4370056  67.3357019  34.6123909  20.6203776  67.9614524
  35.0914904  21.8837427  66.8024980  33.6037146  22.5788944  68.1241935
  33.3731827  23.4318077  67.4858399  32.7136994  22.1636515  68.5970003
  34.5098484  22.8306900  69.3176542  34.6005208  22.0524731  69.9550372
  35.4420310  23.0802495  69.0195605  34.1189109  23.5146315  69.9497080
  35.8744073  21.3791732  64.4153719  35.8595937  22.5743992  64.3270185
  37.0200331  20.6777655  64.6149084  36.8434529  19.6910929  64.7389913
  38.3386545  21.3035059  64.7964317  38.1938628  22.1280550  65.4944676
  39.3349980  20.2458956  65.3401313  39.5078423  19.3740472  64.7091755
  40.3000792  20.7320993  65.4827264  39.1184526  19.7760006  66.6478813
  39.3411265  20.5480675  67.3843798  38.0665235  19.5503715  66.8229144
  39.9785459  18.5010516  66.9145872  41.0626988  18.2468245  66.4853644
  39.5108848  17.7402756  67.8775564  40.0863120  16.9485725  68.1269388
  38.6284011  17.8354741  68.3594897  38.8976981  21.9347979  63.5193819
  39.4119065  23.0706755  63.5254530  38.7064160  21.2404140  62.3953040
  38.3514637  20.3056102  62.5376091  38.9921198  21.6738406  61.0444408
  40.0183927  22.0401343  61.0179477  38.6661194  20.5172844  59.9502974
  39.1370738  19.5621537  60.1827447  37.6103581  20.2615037  60.0399874
  38.9593305  20.8156212  58.4909028  38.4813644  21.7380726  58.1611540
  40.4598879  21.0099541  58.2229244  40.7703042  21.9457220  58.6877700
  40.9732201  20.1427182  58.6382459  40.8247761  20.9673703  57.1966933
  38.5334314  19.6583508  57.6147798  39.0282669  18.7582761  57.9796057
  37.4484695  19.5948331  57.5315714  38.7757390  19.7860716  56.5597563
  38.1522517  22.9051295  60.6166081  38.6301885  23.8509145  60.0623759
  36.8307459  22.8080529  60.9053406  36.4608301  21.8776197  61.0378412
  35.8664928  23.8929812  60.6799057  35.8394878  24.2422063  59.6477175
  34.3869704  23.3783903  61.0786861  34.4739903  22.7174057  61.9410244
  33.7721671  24.2561913  61.2776394  33.8043604  22.4873229  59.9672615
  34.5602990  21.7726772  59.6417797  32.5280822  21.9080617  60.6143086
  32.8645946  21.1494278  61.3209417  31.9890567  22.7001340  61.1340902
  31.8481161  21.3150510  60.0026809  33.3768817  23.2873730  58.6764702
  34.3476626  23.5308864  58.2447538  32.8403858  22.6482511  57.9751890
  32.8362894  24.2074859  58.8984222  36.3003488  25.1766502  61.4843557
  36.3821059  26.2468555  60.9475908  36.6061761  25.0557111  62.7681158
  36.5458454  24.1706143  63.2508827  36.9527790  26.2846203  63.5959084
  36.1041652  26.9686766  63.6005572  37.1510529  25.8490258  65.0301096
  37.8107332  24.9815567  65.0505951  37.6755055  26.6093341  65.6088849
  35.8640399  25.5588143  65.7840473  35.3144637  26.4984073  65.8408936
  35.2384442  24.8961393  65.1860575  36.1039900  25.0946092  67.1981389
  35.2284743  25.4349701  67.9973111  37.1140619  24.3419331  67.4338230
  38.2564835  27.0719453  63.0688986  38.2252662  28.3062944  62.9042271
  39.3570399  26.4609281  62.7237559  39.2902980  25.4546302  62.7786259
  40.4907990  26.9966422  61.9613303  40.9095012  27.7930533  62.5765682
  41.5010857  25.7944182  61.8414262  41.5782404  25.3448318  62.8313854
  41.1521033  25.0166445  61.1621766  42.8525500  26.1473943  61.3370529
  43.4487265  25.2481212  61.1821940  42.8539452  26.4404377  60.2871796
  43.6535189  27.0992473  62.1542641  43.2343752  28.0767147  61.9155673
  43.3212125  27.0385702  63.1905994  45.1220343  27.0308099  61.7761530
  45.5989314  26.1087928  62.1086517  45.2156498  27.0785998  60.6912326
  45.8711612  28.1340004  62.4512049  45.6962925  28.1701940  63.4452929
  46.8314371  27.9299691  62.2138289  45.6411288  29.0953998  62.2440896
  40.1198480  27.5900164  60.5776839  40.6239679  28.6740966  60.3033848
  39.2364192  27.0403705  59.7558526  38.7024438  26.2375913  60.0567114
  38.7698663  27.6415440  58.4613582  39.6285156  27.9389448  57.8593829
  37.8599946  26.6910130  57.5357450  37.0521882  26.3331074  58.1740649
  37.2003832  27.3747752  56.3016297  36.6953307  26.6886796  55.6217081
  36.6209282  28.1910768  56.7328878  38.0243841  27.8843510  55.8021757
  38.8237813  25.5782879  57.0883562  39.6546692  25.9896732  56.5152177
  39.2996562  25.1207695  57.9557200  37.9829790  24.5025406  56.3254947
  38.3609663  23.4985019  56.5181928  36.9272780  24.5501454  56.5925700
  38.0509012  24.6626821  55.2494613  37.9936600  28.8939288  58.7971670
  38.3126098  29.9662021  58.1939708  36.9870638  28.8437092  59.6796602
  36.6944609  27.9841788  60.1220300  36.2463838  30.0449416  60.0687958
  35.8093950  30.4447311  59.1537499  35.0893089  29.5651040  60.9972225
  35.4518055  28.8340245  61.7198696  34.5177455  30.7051436  61.8262065
  33.5966599  30.4485912  62.3495439  35.2162624  30.9379933  62.6299139
  34.1964317  31.4534749  61.1017346  33.9499053  28.7250929  60.2741617
  33.2915436  29.3919192  59.7173831  34.3776366  28.0321214  59.5496361
  33.0019916  27.9501336  61.1881985  32.4685973  28.7268294  61.7362315
  32.3011705  27.3856945  60.5730896  33.5214508  27.3155431  61.9062215
  37.1294641  31.1364655  60.7757772  36.9145977  32.3143351  60.5252169
  38.1506211  30.7326867  61.4757086  38.2107011  29.7780540  61.8000029
  39.0962811  31.7032707  62.0801308  38.5515089  32.4998476  62.5868748
  39.8986317  30.8765935  63.1192683  39.1904799  30.4855229  63.8498061
  40.4016021  30.0827665  62.5670371  41.0852361  31.6624506  63.7880822
  41.7050438  30.8765543  64.2197157  41.6547689  32.1242509  62.9815632
  40.6193943  32.7485591  64.7740876  40.3002018  32.4477490  65.9699138
  40.5181230  33.8843141  64.2466066  39.9551095  32.3343175  60.9766725
  39.9567881  33.5153330  60.7156616  40.5798311  31.4633319  60.1852803
  40.6208094  30.4737420  60.3831003  41.5202194  31.9101788  59.1774345
  42.1944792  32.5644999  59.7300081  42.3605348  30.7660920  58.5374646
  41.6731417  29.9682156  58.2564237  42.8543471  31.0844495  57.6193669
  43.2930186  30.1410218  59.6742094  42.6984386  29.9502908  60.5676280
  43.4387174  29.0876790  59.4347503  44.6197982  30.8369172  60.0115323
  45.4901898  30.3354493  60.7724098  44.9002127  31.9425749  59.4977020
  40.8977742  32.7761629  58.0441570  41.6493666  33.4400385  57.3859358
  39.5935396  32.6359460  57.7621391  39.1362661  31.8652933  58.2280740
  38.8776694  33.4037513  56.7835607  39.6330928  33.9948391  56.2658137
  38.2330238  32.5401682  55.7030138  37.4700122  31.8965919  56.1408780
  37.7578607  33.0621590  54.8724443  39.3727515  31.7087463  55.0974692
  40.1910621  32.1915137  54.2949868  39.5701770  30.4835074  55.5687408
  40.3604463  29.9179812  55.2935034  39.0038437  30.1969881  56.3544082
  37.9975196  34.4363493  57.4992499  37.3892308  35.2682307  56.8365274
  38.0402926  34.5843788  58.8050239  38.7202596  34.0048439  59.2760697
  37.3333941  35.5495563  59.6558491  37.4427753  35.1508853  60.6644129
  38.0689101  36.8905630  59.6918334  37.8577115  37.4206119  58.7631012
  37.6987626  37.4736584  60.5350953  39.6047577  36.8447524  59.9248235
  40.2551369  36.5284310  61.0643832  39.8377862  36.4351204  61.9793758
  41.5600916  36.6027103  60.8626007  42.3401018  36.4173948  61.5862320
  41.7936274  36.8960385  59.5834484  42.7065229  36.9959572  59.1630461
  40.6055208  37.1073235  58.9632587  40.5066446  37.3035058  57.9058362
  35.8083867  35.5849282  59.4571736  35.2001921  36.6183970  59.4233702
  35.2440628  34.4366831  59.2603645  35.8712341  33.6729528  59.4688645
  33.8508841  34.2997421  58.8405376  33.6938374  35.0737419  58.0892981
  33.6167609  32.9439359  58.1942979  33.6909135  32.2280235  59.0128787
  32.2831895  32.8261592  57.4892727  32.2266205  31.9391486  56.8583164
  31.4422825  32.6178993  58.1507894  32.1167884  33.7823442  56.9931669
  34.6450125  32.5509364  57.2710810  34.5911800  33.1156154  56.4965878
  32.7920081  34.5595189  59.9005513  32.9273984  34.0399483  60.9985101
  31.6402544  35.2035532  59.5563501  31.6185461  35.6626638  58.6569913
  30.3247017  35.0938608  60.3065606  30.4928883  34.4139910  61.1417794
  30.1001552  36.4843189  60.9911080  29.2260302  36.2524868  61.5995975
  30.9275940  36.6804340  61.6730115  30.0594175  37.6626221  60.1088194
  31.0017303  37.6022599  59.5642976  29.2924369  37.6112963  59.3360281
  29.9577630  39.0417913  60.7114578  28.9645075  39.1918893  61.1345594
  30.7251390  39.0397817  61.4855573  30.2761993  40.2115517  59.7330816
  30.1765211  41.1504690  60.2776907  31.3185448  40.1574193  59.4189393
  29.4151112  40.2545838  58.5686921  28.4805861  40.3336863  58.9435329
  29.5662712  41.1552322  58.1373091  29.5134856  39.5275187  57.8745742
  29.1646910  34.6758841  59.4608484  29.0448665  35.0709024  58.2583959
  28.1954578  33.8630329  59.9739877  28.0455927  33.4037107  61.3394927
  28.0340380  34.1454225  62.1381353  28.8572815  32.7164854  61.5782063
  26.7968205  32.5364632  61.3629379  25.9275333  33.0586322  61.7626620
  26.9342069  31.6762170  62.0180726  26.5495387  32.1208892  59.9581710
  25.4968024  31.9229904  59.7564723  26.9574827  31.1434703  59.7006156
  27.1688806  33.2539794  59.1311446  27.8086819  32.8792174  58.3322030
  26.2148324  34.1102270  58.3124356  25.7503195  33.5945719  57.3241040
  25.9245725  35.3132557  58.6876378  26.2944606  35.6639349  59.5595936
  25.1421720  36.2460882  57.8726654  24.1359009  35.8727562  57.6825561
  25.0035285  37.5321297  58.6698904  24.2501579  38.1340660  58.1617510
  24.5323501  37.3199493  59.6296145  26.3041839  38.3864612  58.8482495
  26.9687009  38.0047369  59.6233676  26.8515819  38.6697698  57.9492546
  25.9613661  39.7549750  59.5289169  24.7898769  40.0408047  59.7086992
  26.8621318  40.5491175  59.8055887  25.7840486  36.5046245  56.4759505
  24.9807693  36.8368451  55.6189252  27.1386373  36.2827218  56.2151024
  27.8036064  36.0824470  56.9484551  27.7375779  36.4612765  54.8621375
  27.1552576  37.1857074  54.2927433  29.1508334  36.9689899  55.0004850
  29.6302098  36.2202765  55.6311415  29.6372919  36.8728643  54.0298059
  29.3700988  38.3820193  55.6723030  30.1412025  38.3505474  56.6495013
  28.6318657  39.3249396  55.2286623  27.8062988  35.1199202  54.1226900
  28.0017819  35.0369065  52.9355454  27.5008665  33.9928015  54.7768988
  27.1121222  34.0347417  55.7081447  27.6634840  32.6214823  54.2177867
  28.5997613  32.4791319  53.6781342  27.7595266  31.5871533  55.3148965
  26.9273290  31.8461125  55.9694859  27.6421164  30.1287261  54.9292479
  26.5925846  29.9632020  54.6859769  28.3947319  29.8050249  54.2102989
  27.7737947  29.5012499  55.8107435  29.1031338  31.6247086  56.0121033
  29.0057082  31.5565062  57.0955962  29.8043706  30.8726539  55.6504570
  29.5555328  32.5967098  55.8154981  26.4578060  32.3303045  53.3098348
  25.2773206  32.5229739  53.6673884  26.7571547  31.7795997  52.1465395
  27.7109132  31.5924890  51.8718862  25.6961862  31.2669889  51.2060668
  24.8833930  31.9919281  51.1621321  26.3770576  31.2460516  49.8319757
  27.2785215  30.6336959  49.8099913  25.3174359  30.7284352  48.8594274
  25.1902938  29.6670481  49.0724733  24.3614419  31.2362609  48.9870541
  25.7710205  30.8729434  47.8788802  26.8295639  32.6509259  49.4820788
  26.0202930  33.3797061  49.4366902  27.6326535  33.0289554  50.1147318
  27.3449910  32.6869919  48.5223180  25.1831871  29.9010901  51.6653479
  24.0070752  29.6866590  51.7526790  26.1175028  28.9724884  51.8604370
  27.0670996  29.3119022  51.8041856  25.8551436  27.5614708  52.0916715
  25.1625873  27.5641848  52.9333712  25.2573283  26.9660897  50.8276225
  24.8549166  25.9709227  51.0168558  24.4406177  27.5721371  50.4354613
  26.2523392  26.8118738  49.7140287  26.7767159  27.7546599  49.5581961
  26.9168903  26.0079056  50.0304254  25.5429121  26.4167343  48.4431409
  24.4925693  26.9503876  48.0730568  25.9837106  25.3942770  47.7848590
  26.8539427  24.9891254  48.0989436  25.4448982  24.9886562  47.0330259
  27.2219345  26.8435729  52.3844666  28.2677676  27.5124371  52.3672690
  27.1742696  25.5376812  52.6961523  26.2740156  25.0834812  52.7539897
  28.3524824  24.7120417  52.6868233  29.0747441  25.2478083  52.0708737
  28.8115135  24.6952273  54.1504679  28.8082882  25.6994069  54.5743984
  28.1486947  24.0553713  54.7330103  30.1584161  24.0204258  54.4118831
  29.9180933  22.9772752  54.2065007  30.9615087  24.2782360  53.7214586
  30.8349119  23.8475641  56.0696092  30.8569415  25.4497261  56.9616591
  31.2802030  25.2465515  57.9453615  31.5758459  26.1233844  56.4953320
  29.8361927  25.8291202  57.0089475  28.1271745  23.2712186  52.1335747
  27.0886368  22.6988846  52.4557584  29.1345337  22.5934757  51.6375276
  29.9870758  23.1335016  51.5969656  29.2602942  21.1984667  51.1822770
  28.3648281  20.6011732  51.3539768  29.4278131  21.1347494  49.6541858
  28.5030137  21.4872249  49.1974506  30.2287261  21.8021417  49.3360213
  29.8854678  19.7252947  49.1503108  30.7395679  19.4087130  49.7489744
  28.7955170  18.6216622  49.2943138  28.4771504  18.4244160  50.3179565
  27.9134119  18.8789102  48.7079565  29.1920506  17.6547674  48.9845144
  30.1916248  19.8636253  47.6333284  30.5229969  18.9414314  47.1559839
  29.3118290  20.1562281  47.0602279  31.1008027  20.4548900  47.5242332
  30.3554812  20.4320225  51.9701446  31.4337079  20.9994882  52.1799947
  30.2136937  19.1395958  52.2167367  29.3564353  18.7277893  51.8767021
  31.1207040  18.2138518  52.7798450  32.0935948  18.6993382  52.7031209
  30.8565033  17.9835304  54.2769909  29.8144659  17.6694245  54.3369628
  31.5446194  17.1822719  54.5463995  31.0964175  19.1242446  55.3418871
  31.9003060  19.7234971  54.9143737  29.9530103  20.1319069  55.4537817
  29.0260309  19.6300150  55.7311058  30.1233554  20.9492227  56.1545515
  29.7892934  20.6341062  54.5003182  31.5365954  18.4667337  56.6774571
  30.6778555  17.9473267  57.1027660  32.3489721  17.7590297  56.5122303
  31.7400997  19.2407334  57.4174643  31.2171750  16.8797950  52.0518066
  30.3197949  16.5716626  51.2125472  32.2965369  16.1273634  52.1780025
  33.0199723  16.3481854  52.8473147  32.4731787  14.8010982  51.5422622
  31.4606374  14.4627135  51.3223624  33.1871708  14.9435456  50.1851530
  32.5716233  15.5752722  49.5447449  34.1482677  15.4489868  50.2796118
  33.3818222  13.7287136  49.5977579  34.0589835  13.8281238  48.9245776
  33.2680627  13.7859810  52.3671648  34.0107564  14.1673259  53.2549189
  33.2097337  12.4975308  52.1443428  32.6341597  12.2434423  51.3542397
  33.7459817  11.3811136  52.9132510  34.5868350  11.8045669  53.4625715
  32.8591342  11.0902716  54.1025095  33.2462024  10.2497178  54.6784822
  32.7925240  11.9708244  54.7414852  31.8510831  10.8501333  53.7644773
  34.1409461  10.1181921  52.1177614  33.3841583   9.7444145  51.1623889
  35.2689380   9.4317395  52.3735695  35.8271245   9.7044177  53.1699202
  35.6510755   8.1616494  51.8190641  35.4835541   8.4163345  50.7725587
  37.1631034   7.8966340  52.0991546  37.5331519   7.0384189  51.5382347
  38.0581277   9.0807075  51.6830066  39.0625788   8.7483721  51.9451728
  37.9396429   9.1127001  50.5999327  37.8766627  10.0419130  52.1638979
  37.3678539   7.7019838  53.4580574  37.5074308   6.7640900  53.6079870
  34.6367524   7.0608157  52.2201886  33.9720520   7.2048727  53.2444065
  34.6331327   5.9482699  51.4147980  35.2665430   5.8766179  50.0700778
  36.3188357   5.6361891  50.2216530  35.1960580   6.8324384  49.5509064
  34.5425779   4.6960614  49.3403804  35.2492100   4.1545827  48.7114349
  33.7016274   5.0575496  48.7485794  34.1559069   3.7838772  50.4732862
  35.0078573   3.2029156  50.8265060  33.3675022   3.0940868  50.1721021
  33.7555012   4.7578584  51.6701312  32.7176526   5.0546321  51.5188176
  33.8237079   4.0803675  53.0346878  33.0577148   3.1450859  53.3057320
  34.8238738   4.3754125  53.8868056  35.3779783   5.1864035  53.6515105
  35.2426024   3.6477345  55.0649997  35.1450473   2.5784735  54.8772053
  36.6882102   4.0262572  55.3093129  36.7432848   4.9285907  55.9182966
  37.1441887   3.2722799  55.9509530  37.5587846   4.1396106  54.0229051
  37.9231793   5.3402307  53.7397556  37.7661934   3.1795079  53.2311171
  34.4516952   4.0333362  56.3179036  34.5747807   3.3064251  57.3464962
  33.5710938   4.9924134  56.2543284  33.4254505   5.4876849  55.3862256
  32.9073248   5.6466562  57.3673583  33.1342513   5.0920720  58.2778778
  33.2997573   7.1496291  57.4405388  32.8912034   7.7192696  56.6058572
  32.9860702   7.5296153  58.4128127  34.7990367   7.3971980  57.5593141
  35.2651406   6.8588397  56.7340763  35.2542821   8.7816171  57.3333302
  34.7145420   9.3011856  58.1250556  36.3347173   8.8010832  57.4760984
  34.8412023   9.1220846  56.3838317  35.4006989   6.8112350  58.8495496
  36.4783215   6.7418600  58.7011738  35.2494063   7.5270976  59.6574798
  35.0585856   5.8011560  59.0749209  31.3631999   5.4581097  57.1780422
  30.7985105   5.9941033  56.1967801  30.6803066   4.9494038  58.1641152
  31.2004988   4.4231607  58.8515512  29.2192199   4.8969085  58.2710192
  28.8477642   5.6767752  57.6062348  28.7279716   3.5023092  57.8395301
  28.9166747   2.8435827  58.6872157  27.6465189   3.5754640  57.7246019
  29.3285911   2.8706079  56.5836966  29.3407594   3.3295867  55.2429010
  28.9148115   4.1668448  54.8718658  29.9466106   2.4153841  54.4712279
  30.1464861   2.4317601  53.4100109  30.5329577   1.4482599  55.3234193
  30.9993685   0.6332026  54.9516091  30.0365914   1.7030792  56.5707656
  30.0927168   1.0387629  57.4204325  28.6133334   5.1853501  59.7090729
  27.3989445   5.1625977  59.7996209  29.3522307   5.6476416  60.6593957
  30.3548705   5.5999031  60.5474388  28.7675862   6.1310556  61.9142674
  28.1589486   5.3102637  62.2936893  29.9396392   6.3779493  62.9306223
  29.6536881   7.0196160  63.7640474  30.3912249   5.4538872  63.2915648
  30.7291310   6.9336999  62.4247193  27.8230734   7.3418280  61.9805172
  26.7438294   7.2759649  62.5895098  28.2243595   8.3825660  61.2496427
  29.0391666   8.3769565  60.6528513  27.5822037   9.6843956  61.1841514
  26.5406542   9.4563538  61.4105836  28.1416304  10.5551345  62.2992407
  28.3957732   9.9420706  63.1639165  29.5169689  11.2576063  61.9586441
  29.4215988  12.0937205  61.2658906  30.0568418  11.6212535  62.8329437
  30.1160673  10.4794831  61.4856690  27.1171285  11.5903199  62.7721697
  27.5657517  12.0192749  63.6681832  26.9636405  12.4248705  62.0880151
  26.1388939  11.1594681  62.9855327  27.6014212  10.3927511  59.8502945
  28.5545434  10.0699892  59.0736220  26.7381750  11.3809186  59.5931924
  25.8890096  11.5068299  60.1253244  27.0441655  12.3993346  58.5193421
  27.5816941  11.7651806  57.8143513  25.7601072  12.8511127  57.8652071
  25.0346112  13.2005247  58.5998275  26.0737136  13.7115022  57.2740378
  24.9973787  11.8257745  56.9984218  24.0542395  10.9939581  57.6392170
  23.8830089  11.1247538  58.6975059  23.2665679  10.1457924  56.8797643
  22.5399738   9.5215922  57.3785980  23.4194907  10.0313754  55.5120459
  22.8399467   9.4203974  54.8358548  24.5320777  10.7215498  54.8783363
  24.8182516  10.5113081  53.8583793  25.3346496  11.6242118  55.6438748
  26.1161323  12.2312564  55.2112247  27.9621680  13.5615310  59.0609058
  27.6050337  14.2114247  60.0114296  29.0319369  13.9570653  58.3734574
  29.7268162  13.2386923  57.2983087  29.4467353  13.6823525  56.3428908
  29.5961925  12.1732068  57.4874598  31.1863709  13.5882385  57.5166123
  31.7272562  13.5088888  56.5736134  31.6236253  12.8303200  58.1665879
  31.1978235  14.9864514  58.0057721  31.1133082  15.6356728  57.1342971
  32.0325748  15.2347891  58.6612252  29.9041576  14.9881388  58.8636616
  30.1301399  14.7162556  59.8947348  29.3724608  16.3596377  58.8509593
  30.0213561  17.2420761  59.4385932  28.2081937  16.6235363  58.2877215
  27.6530545  15.8737200  57.9008080  27.4401273  17.9133125  58.4256017
  28.1713146  18.6851780  58.1854166  26.3375520  17.9043288  57.2684254
  25.7809680  16.9825981  57.4379146  25.6652587  18.7447081  57.4413044
  26.8379791  17.9731005  56.3025352  26.8974014  18.2111286  59.8359909
  26.8280091  19.3502667  60.2270365  26.7709645  17.2022999  60.6757009
  26.7712531  16.2563722  60.3216941  26.3836071  17.2225681  62.1545329
  25.4173279  17.7269090  62.1478443  26.1895456  15.7907213  62.6741200
  25.7117896  15.2017873  61.8911731  27.1616608  15.3514628  62.8980630
  25.1723946  15.7607855  63.8752439  25.6784531  16.1672341  64.7509175
  24.3579341  16.4605422  63.6879074  24.7289619  14.2543046  64.0481671
  24.5810955  13.7385666  63.0993518  25.5211353  13.7159974  64.5685388
  23.4501140  14.1789044  64.8738766  23.7251426  14.3078757  65.9206967
  22.7947181  15.0324433  64.7005920  22.8797655  12.8309683  64.6956711
  22.5824277  12.7567704  63.7332861  23.5919951  12.1366855  64.8711896
  22.0293310  12.6933029  65.2228426  27.3254010  18.0120979  63.0340728
  26.9764802  18.6822220  64.0069737  28.5743318  18.1267289  62.5728951
  28.8321658  17.6334881  61.7300787  29.5811515  18.9817093  63.1977194
  29.6467971  18.6950133  64.2472888  30.9740369  18.7459734  62.5550294
  31.4214992  17.7706399  62.7463670  30.8768245  18.7649403  61.4695378
  31.6754245  19.4729240  62.9645391  29.2501228  20.4927792  63.1255115
  29.5821761  21.1907802  64.0872312  28.6082905  20.9749502  62.0169806
  28.3520071  20.3469203  61.2686510  28.1935805  22.4062235  61.9821108
  29.1260543  22.9538286  62.1189376  27.6873149  22.7720424  60.5504391
  26.9341727  22.0207696  60.3128130  27.2018144  24.2387735  60.5487840
  26.1721783  24.2593103  60.9058830  27.8745092  24.7961574  61.2006322
  27.2587235  24.6830057  59.5550440  28.7838792  22.6489160  59.4427825
  29.0430637  21.5924270  59.3738192  28.5213361  22.9458209  58.4273916
  29.6989390  23.1973040  59.6664916  27.2523321  22.8509400  63.1633324
  27.2042245  23.9949285  63.5808515  26.5858872  21.9137325  63.7745251
  26.7616464  20.9635262  63.4807281  25.4930010  22.1761305  64.7575792
  24.8907631  23.0121217  64.4018558  24.4615813  21.0236640  64.7604296
  24.1395944  20.7856543  63.7466368  24.8863032  20.0831017  65.1112227
  23.2986010  21.1955029  65.7380455  22.6885734  20.2933034  65.7828072
  23.6725083  21.2336775  66.7611956  22.5062323  22.4792081  65.4764019
  21.6419408  22.4194825  66.1378649  22.8899791  23.4396135  65.8205819
  22.0767862  22.4392196  64.1111933  22.6903396  22.7400767  63.3674613
  20.8349558  22.2740907  63.6332464  19.7780561  21.8682318  64.3337876
  19.9428483  21.7091694  65.3174759  19.0290275  21.4625291  63.7911440
  20.6990997  22.4112417  62.3621131  19.8089236  22.2336852  61.9192091
  21.4307408  22.7986995  61.7835997  26.0405401  22.5492206  66.1955049
  25.3520883  23.1309597  66.9849868  27.3090533  22.1389864  66.3610631
  27.7351655  21.6231543  65.6044618  28.1655240  22.4767494  67.5136392
  27.6240984  22.1955070  68.4168923  29.4745913  21.5897643  67.5131365
  30.0159618  21.6644584  66.5700359  30.1566313  21.8522855  68.3218482
  29.1472595  20.0453135  67.5824112  28.8445403  19.7822266  66.5688780
  30.0960449  19.6232628  67.9137410  28.0412121  19.5756648  68.5854603
  27.1673943  18.7888243  68.1755515  28.0726036  19.9430691  69.8070095
  28.4666319  23.9377271  67.6414983  28.5682609  24.5440267  68.7247893
  28.5508654  24.6049343  66.4677492  28.1200408  24.0924935  65.7115121
  29.0870890  25.9542951  66.2385217  29.9352590  26.2200013  66.8694796
  29.5521660  26.0791375  64.7638097  28.7037451  25.8623048  64.1147587
  29.9626445  27.0832090  64.6568152  30.6750096  25.1116052  64.2884222
  30.3523051  24.0819458  64.4425757  30.9843588  25.3350097  62.8133698
  30.8760821  26.4026380  62.6222138  31.9762551  24.9816828  62.5315866
  30.1968998  24.9052097  62.1942720  32.0182271  25.1490875  65.0684315
  31.7840562  24.9523435  66.1146451  32.7002533  24.4141074  64.6409443
  32.5211749  26.1159722  65.0517747  28.0109072  27.0061750  66.4478150
  27.0194023  26.8480240  65.7300073  28.0431062  27.9074512  67.4354024
  28.7941937  27.8247807  68.1055766  26.9947430  28.8716570  67.6679495
  26.0600245  28.3349579  67.8302930  27.2398799  29.7256608  68.9221831
  27.3123518  29.1611549  69.8517967  28.1162516  30.3573336  68.7770554
  26.0799510  30.5170179  69.1038366  26.1934195  31.0434108  69.8985923
  26.6877809  29.7424690  66.4312884  27.5757858  30.3259317  65.7718806
  25.4450625  30.1451810  66.2167142  24.7642834  29.8072896  66.8819004
  25.0092370  30.9979882  65.1112479  24.0187510  31.3363905  65.4154243
  25.6372752  31.8320256  64.7981190  24.6986295  30.1765534  63.9106144
  23.8235618  30.5794017  63.1814606  25.4786675  29.0774047  63.5808888
  26.0782160  28.7064707  64.3041106  25.4327178  28.4200586  62.2789303
  25.5451192  29.2073716  61.5335416  26.6294252  27.4877806  62.1935212
  26.6397814  26.8460105  63.0745009  26.6173280  26.8671421  61.2975516
  27.9332035  28.2754469  61.9950075  28.5981586  29.0561775  62.8802318
  28.3267276  29.1828255  63.9178663  29.7180095  29.6413957  62.3171291
  30.2659160  30.3936052  62.7096587  29.6756433  29.5311984  60.9865737
  30.4252088  30.1036778  59.9540544  31.1792925  30.8712237  60.0469588
  30.2594244  29.6168695  58.6207426  30.8259317  30.0024528  57.7860002
  29.2068962  28.7230524  58.3460408  29.0272187  28.5178907  57.3010388
  28.3972946  28.2409617  59.3687300  27.5476768  27.6269637  59.1088147
  28.6232011  28.5724603  60.7454296  24.1050428  27.6242462  62.0753084
  23.9181894  27.0030789  61.0742056  23.1395694  27.6850220  63.0185519
  23.2664131  28.2166157  63.8679156  21.9803290  26.7068729  62.9308674
  22.3932761  25.6987797  62.8944980  21.0200446  26.9361772  64.1416558
  20.8758718  28.0048658  64.3004605  20.0448918  26.5258190  63.8793812
  21.6471066  26.2394866  65.3650999  20.8019001  25.8837027  65.9542890
  22.2051272  25.3379209  65.1123121  22.5530423  27.1305990  66.2017633
  23.0754626  28.1944830  65.8189245  22.7974130  26.8200182  67.4252718
  22.2169364  26.1483024  67.9068788  23.4632015  27.3134706  68.0026196
  21.1843713  26.7756639  61.5991268  20.5611471  25.7894476  61.1892195
  21.1332206  27.9022481  60.9725261  21.6466659  28.6768345  61.3681139
  20.3867164  28.2133554  59.7848699  19.5923435  27.4809697  59.6410544
  19.5288969  29.4289284  59.9800566  20.1303601  30.2870869  59.6802131
  18.7274315  29.5030607  59.2450271  18.8101737  29.4789572  61.2954536
  17.8049239  28.4859995  61.4641614  17.5489230  27.8010408  60.6693664
  17.2649955  28.3347144  62.7998603  16.4469912  27.6627767  63.0138224
  17.7529452  29.2130049  63.8159943  17.2505663  28.9562529  65.0807826
  17.7436308  29.3164230  65.8215692  18.6377361  30.3195422  63.5596953
  18.9466186  30.9946150  64.3440857  19.1266204  30.4321849  62.2677332
  19.7188607  31.2900795  61.9854653  21.2375416  28.2254726  58.5253543
  20.7533991  28.3305394  57.4353278  22.5709591  28.0304395  58.6078572
  23.0052924  27.9823800  59.5184311  23.3577774  27.6902074  57.4569371
  23.1664622  28.4640599  56.7135322  24.8948072  27.8709035  57.7437957
  25.1214830  27.3785445  58.6894705  25.7829698  27.3142734  56.6132963
  26.8573772  27.3835675  56.7834346  25.5104708  26.2617113  56.5360837
  25.6305858  27.7210577  55.6135933  25.2877114  29.3837178  57.9477050
  24.9295146  29.7653306  58.9038257  26.3733431  29.3065666  58.0073234
  25.1743779  30.0373838  57.0828485  22.9381303  26.4211159  56.7383422
  22.8792643  25.3416913  57.3967340  22.6979023  26.3957274  55.4647084
  22.5055063  27.5252431  54.5157965  23.3800514  28.1654485  54.4000035
  21.7306753  28.2105768  54.8593880  22.0634582  26.9279968  53.1534010
  22.9880256  26.8121174  52.5878507  21.4342401  27.5099508  52.4799604
  21.3636281  25.6037524  53.5946067  21.3558874  24.9300165  52.7377985
  20.3024651  25.7306372  53.8089273  22.2340893  25.1230152  54.8285652
  21.5472158  24.6062802  55.4988575  23.4287577  24.2115579  54.5077373
  24.4512420  24.7202796  53.9799950  23.3905182  22.9104647  54.8515015
  22.4986156  22.5572334  55.1674720  24.5359318  21.9838137  54.7150744
  25.3857650  22.5339458  54.3110443  25.1248991  21.7033407  56.1480621
  24.4187127  21.0685191  56.6832279  26.4665951  20.8989288  56.0006834
  27.1108667  20.9374699  56.8790465  26.2518913  19.8844236  55.6648539
  27.0718641  21.4353551  55.2699273  25.4472060  22.9794978  56.9656821
  24.4848948  23.4482775  57.1713584  25.8633210  22.6826181  57.9283929
  26.1448530  23.6674932  56.4881323  24.2292508  20.7120226  54.0071222
  23.1644064  20.2462659  54.2194738  25.1597264  20.2879360  53.0864608
  25.9991644  20.8198092  52.9060314  25.0516121  18.9387502  52.4206672
  24.3144390  18.4243079  53.0371288  24.6919390  18.9992775  50.9804186
  24.7688620  18.0151841  50.5180950  23.2485198  19.4866417  50.6792858
  23.1947463  20.5741014  50.7306659  22.9914693  19.1468591  49.6760037
  22.6012274  18.9415937  51.3663344  25.6021722  19.7942017  50.2951661
  26.4214638  19.5646556  50.7397670  26.2931108  18.1272184  52.6096331
  27.3713826  18.6462860  52.8090133  26.1739190  16.7999716  52.5158248
  25.2479867  16.3978940  52.4828137  27.2781125  15.8820601  52.3520797
  28.2040127  16.4568488  52.3729359  27.3946497  14.8118333  53.4511491
  26.4504052  14.2676069  53.4690928  28.2106702  14.1388964  53.1877740
  27.7877642  15.5156338  55.1061050  26.6971384  16.2759171  55.2380162
  27.2040267  15.0929205  51.0189186  26.1062075  14.8631218  50.4801239
  28.3327208  14.5184257  50.5131661  29.2647637  14.6792437  50.8674734
  28.3457339  13.5633369  49.4341316  27.4899267  12.8939474  49.3468860
  28.5708267  14.2975854  48.1070075  28.4966110  13.5391659  47.3276510
  27.7644839  15.0283991  48.1688364  30.0457351  14.8207111  47.8939429
  30.4257299  15.3723894  48.7538013  30.6239297  13.9140380  47.7158001
  30.4024267  15.8661152  46.4491937  32.2597915  15.9597794  46.5503486
  32.4520245  16.6915538  47.3349840  32.6255941  14.9376625  46.6481588
  32.7430570  16.4110503  45.6837983  29.3571441  12.4232939  49.7971643
  30.1064189  12.5046976  50.7182241  29.4031586  11.4465271  48.9222919
  28.6456178  11.4447728  48.2542882  30.5028848  10.5294439  48.9075215
  30.8674831  10.3394494  49.9170126  29.9771010   9.1480877  48.4349320
  29.0352089   8.8987592  48.9235777  29.7645924   9.2071931  47.3674808
  30.9449277   7.9610535  48.5175302  30.6482295   7.2390061  47.7567952
  31.9816486   8.2944254  48.4708702  30.7697402   7.3086794  49.9173066
  29.9149006   6.3871560  50.0443726  31.5046108   7.5818462  50.9418197
  32.2925180   8.2089374  50.8639693  31.3370411   7.0803950  51.8023817
  31.5550382  10.9952658  48.0348188  31.3017055  11.4363339  46.9288345
  32.8438244  10.7802116  48.4693652  33.0266431  10.4861367  49.4181525
  34.0716342  11.1138274  47.6966862  33.9725070  12.1096519  47.2647008
  35.3068358  11.1462466  48.6122535  35.0327795  11.8148444  49.4283238
  35.5192800  10.1334295  48.9545532  36.6143068  11.7391633  47.9496161
  37.4530451  11.4452320  48.5806651  36.8384572  11.2300204  47.0122634
  36.5448036  13.2908567  47.7313683  37.5467139  13.7898580  47.2274511
  35.4191843  13.8524368  47.9144769  34.2820970  10.0358894  46.5826472
  34.0151715   8.8386009  46.7717171  34.7916286  10.4879898  45.4646434
  34.9716457  11.4689426  45.3051900  35.2568791   9.6049109  44.3482968
  34.4056161   9.0996001  43.8920944  35.8308909  10.5686963  43.3243309
  35.0202546  11.2334070  43.0257868  36.5544593  11.2382317  43.7893926
  36.4082525   9.9216591  42.0829383  37.4246509   9.5637831  42.2471313
  35.8646806   8.9965269  41.8912094  36.4520811  10.8462036  40.4591834
  37.5877415   9.8977817  39.4650655  38.6069408   9.8645588  39.8500661
  37.1804972   8.8876200  39.4223393  37.6195134  10.3127190  38.4576359
  36.2740616   8.5480394  44.8340713  37.2341039   8.9527906  45.4970651
  36.0350232   7.3000532  44.5319047  35.2711311   7.0270105  43.9302267
  36.8908214   6.2147185  44.9709599  37.5137901   6.5613962  45.7954766
  36.0356539   5.0388799  45.5918089  35.7989032   5.5408513  46.5299315
  35.2359437   4.8234414  44.8831834  36.8029803   3.7681943  45.9188809
  38.0023638   3.7866523  46.1218738  36.2300532   2.6724938  45.8516472
  37.9943575   5.8900515  43.8918835  37.6943951   5.5094943  42.7324294
  39.2859732   6.1240403  44.2039596  39.4836912   6.3361923  45.1714301
  40.4285008   6.2199947  43.3245152  40.3114551   5.6191806  42.4226147
  40.6728602   7.7107254  42.9256314  40.3635244   8.4076099  43.7045841
  42.1125972   8.0333222  42.5576600  42.1888135   9.0890442  42.2973934
  42.8218238   7.9264607  43.3784390  42.5154596   7.4654424  41.7190190
  39.8393845   8.0515381  41.7465245  40.1574371   7.3992299  40.9332370
  38.7676343   7.9564465  41.9209247  40.0153748   9.0958507  41.4885622
  41.6661283   5.4690753  43.8272174  41.8439768   5.4717908  45.0187069
  42.5733208   4.9154726  42.9797396  42.3627071   5.1305103  42.0156334
  43.8253034   4.2363567  43.3696028  43.6420751   3.2828873  43.8650052
  44.6745416   3.9331456  42.1158742  44.9977893   4.8128301  41.5593078
  45.7807440   2.9151966  42.4444412  46.4184904   2.5476804  41.6404997
  46.4399600   3.4560787  43.1233985  45.2461401   2.1266284  42.9740248
  43.8399794   3.2005025  41.2467616  44.3893393   2.9105615  40.5148203
  44.7443140   4.9900295  44.3160131  45.2215354   4.5501247  45.3580002
  44.9093962   6.3182219  44.0605904  44.7356103   6.5629408  43.0962196
  45.7060738   7.1836279  44.8754504  46.5679558   6.6773031  45.3100706
  46.0751371   7.9574438  44.2023164  44.8561085   7.8215666  46.0043207
  45.2088156   8.8698942  46.3641939  43.7248308   7.2991137  46.4350217
  43.5166549   6.3597392  46.1278762  42.8154316   7.8803026  47.4596500
  42.6810284   8.9341271  47.2157450  41.8717509   7.3428388  47.3663421
  43.3093207   7.7878485  48.8778462  43.5327318   6.7099534  49.4207007
  43.3920789   8.9539613  49.4862268  43.2207866   9.7545850  48.8948212
  43.7169173   9.0933319  50.9426255  44.6735957   8.6984251  51.2845539
  43.6517039  10.5502921  51.3273924  44.3557703  11.0972036  50.7002731
  42.7161183  10.9955621  50.9889927  43.9076879  10.9028141  52.8092415
  43.2873315  10.3032124  53.4753823  45.3599975  10.6369837  53.2503047
  45.7088225  11.2879437  54.0519735  45.5096316   9.5933363  53.5269086
  45.9421860  10.8129962  52.3457712  43.6001771  12.4411989  52.9001651
  44.4820459  12.9688109  52.5368048  42.6910384  12.8255895  52.4377684
  43.3525679  12.7748795  53.9078589  42.6096516   8.3587909  51.7576892
  41.4429080   8.5922674  51.5879269  42.9411119   7.4498207  52.6815150
  43.9193672   7.1997874  52.6570194  41.9566686   6.6935154  53.4411171
  41.1456330   6.3922667  52.7781159  42.7430232   5.4738729  53.8755714
  43.5763953   5.7298128  54.5298542  42.0981348   4.9515428  54.5822469
  43.1946239   4.5543629  52.7375773  42.3345890   4.0130952  52.3432816
  43.7123711   5.1481959  51.9843156  44.1108327   3.4499931  53.2832058
  45.0136839   3.9868986  53.5742262  43.6873233   3.0128536  54.1874451
  44.4646663   2.3794052  52.2705162  43.5864408   1.8335404  51.9257676
  44.8221586   2.8692179  51.3647656  45.4739861   1.3587404  52.7270089
  46.3965788   1.6181245  52.4081947  45.2869559   1.3691081  53.7194897
  45.2009558   0.4775254  52.3158945  41.3366461   7.4597010  54.5642457
  41.9728451   8.3868003  55.0589440  40.0334263   7.1364931  54.9036232
  39.5961586   6.4699460  54.2834522  39.2962653   7.5870121  56.0687286
  38.2484881   7.3208642  55.9293432  39.7993963   6.9666472  57.4919032
  40.6858174   7.4703204  57.8774820  38.9721504   7.2216904  58.1542667
  40.0232475   5.4497502  57.4092100  39.0749347   4.9767895  57.1540415
  40.7686726   5.2351974  56.6434304  40.4386815   5.0093886  58.7941361
  41.2608482   5.6327080  59.1457272  39.5278254   5.1241543  59.3817328
  40.9614281   3.5556640  58.8350709  40.2140145   2.8282234  58.5183570
  41.7665684   3.5559718  58.1003267  41.3718902   3.1608821  60.1629452
  41.9132187   3.9372538  60.5155220  40.5363530   3.0488906  60.7192212
  41.8153546   2.2719517  60.3452712  39.4058794   9.1301875  56.0855483
  39.9736227   9.7477558  57.0184359  38.8524441   9.7496957  55.0333090
  38.3100187   9.1947023  54.3868903  39.0137617  11.2952079  54.9053905
  39.4738903  11.6302296  55.8349829  40.0414546  11.6198716  53.7401844
  40.9807347  11.1490510  54.0303238  39.6808952  11.3026499  52.7616762
  40.2295177  13.4569914  53.5433743  40.7970441  13.6825526  54.7316253
  37.6343088  11.9483153  54.7636232  36.6838672  11.3739366  54.1770408
  37.5324928  13.1208674  55.4216128  38.3779428  13.5409935  55.7805116
  36.3931276  14.0606660  55.3324801  35.6897965  13.6158603  54.6285105
  35.6158400  14.2821797  56.6097367  36.2363921  14.7331180  57.3841202
  34.3834448  15.2154228  56.4291070  33.8253656  15.2517785  57.3646942
  34.7536890  16.2153443  56.2028851  33.7547420  14.9059077  55.5942201
  35.1933732  12.8640699  57.1364557  34.2250471  12.8950990  57.6359381
  35.1014674  12.1603201  56.3091773  36.0875590  12.4407373  58.3374041
  35.6182707  11.6851918  58.9674985  36.9934049  11.9983791  57.9228412
  36.3829958  13.2462952  59.0096335  36.9730306  15.3618134  54.6977260
  38.0960849  15.8082425  54.9692323  36.1422090  15.9695099  53.7960928
  35.2198056  15.5589714  53.7690714  36.4524296  17.1085879  52.9817420
  37.3663287  17.5288409  53.4015943  36.6862811  16.6451433  51.5830824
  35.8037522  16.3929001  50.9951912  37.1114306  17.5197775  51.0907782
  37.8211482  15.6532388  51.4908247  38.7031315  15.9509837  52.0578815
  37.4938092  14.6513761  51.7687123  38.2040275  15.5902375  50.0491979
  37.4656330  14.9525607  49.5631507  38.1453184  16.6006207  49.6444985
  39.5479135  15.1039415  49.7818846  40.1623785  15.7921772  49.3709534
  39.8727142  13.8576255  49.8816515  39.1791682  12.9337283  50.4327130
  38.4119584  13.3097024  50.9713586  39.4672422  11.9675047  50.4920884
  40.9070223  13.4077669  49.2858779  41.3507296  14.0672497  48.6627357
  41.0909822  12.4184703  49.1989905  35.3555772  18.1947683  53.1706280
  34.1845870  17.8421017  53.4867141  35.6643976  19.4701559  53.0451716
  36.6037246  19.7635368  52.8178117  34.6676570  20.5567051  53.1092337
  33.7048597  20.1490492  52.8011136  34.6675719  21.1032561  54.5492727
  34.4511688  20.2984904  55.2518550  36.0611573  21.5766533  54.8989313
  36.5761574  22.1608946  54.1363458  36.1165801  22.2754911  55.7335893
  36.7521244  20.7668086  55.1330572  33.5509532  22.2152278  54.7148970
  32.6447071  21.8711710  54.2164500  33.4209881  22.3669624  55.7864314
  33.8087239  23.1713235  54.2593365  34.9475845  21.5608611  52.0218787
  36.0785262  21.8636554  51.6346534  33.8960051  22.2098325  51.5408833
  33.0004184  21.8084939  51.7795292  33.8344699  23.3154364  50.5308122
  34.7679747  23.8781580  50.5355259  33.5172762  22.8116159  49.1497011
  34.3369440  22.2027130  48.7682803  32.7001010  22.0942436  49.2252717
  33.2969943  23.8878043  48.1699208  32.6843950  23.3852039  47.4214458
  32.6579095  24.7331715  48.4249250  34.6686295  24.4402473  47.2192969
  34.9405539  22.9687757  46.1465357  35.1407370  22.0416660  46.6836524
  34.0898677  22.7620628  45.4971518  35.6996673  23.2473944  45.4156381
  32.7102281  24.2990774  51.0401855  31.5386482  24.1442025  50.7447813
  33.1637289  25.3489040  51.7820037  34.1508906  25.4886508  51.9435051
  32.2937910  26.4256453  52.3421742  31.3123240  25.9849867  52.5172265
  32.8341670  26.8300350  53.7184248  32.7634433  25.9271150  54.3249097
  33.8953738  27.0700077  53.6524439  32.1011401  28.0336127  54.3546869
  31.8374086  28.7647349  53.5904840  31.1204145  27.6715328  54.6631958
  32.9314782  28.7241394  55.8591057  34.3890086  29.3634660  55.1020223
  34.2437155  29.6262964  54.0542156  34.6238568  30.2720390  55.6564971
  35.1835773  28.6186421  55.1467223  32.1830002  27.5687955  51.3043061
  33.1828474  28.0828788  50.8671693  30.9052534  27.9260199  51.0071631
  30.1906147  27.6708331  51.6736999  30.7005338  29.1119943  50.1586666
  31.6136888  29.4450978  49.6654222  29.8495093  28.7256000  48.9613918
  28.8857119  28.2713244  49.1912555  29.6894958  29.8454175  47.9588145
  28.7881346  30.4117358  48.1931891  30.6044244  30.4357857  47.9090735
  29.6440996  29.2979897  47.0173462  30.6147192  27.8303971  48.1579152
  30.7146344  27.0779133  48.7456098  30.1958728  30.3418942  50.8689841
  29.3127080  30.2355945  51.7393350  30.7452411  31.5226890  50.5740764
  31.4711422  31.4278606  49.8782494  30.5275296  32.7543851  51.2627218
  29.5386919  32.7160866  51.7197045  31.6214604  33.0632453  52.3020460
  31.2832256  33.9059167  52.9050409  31.7973072  31.8686133  53.3016412
  32.4860855  32.1428440  54.1006927  30.8425660  31.6852433  53.7945354
  31.9623722  30.9321310  52.7688704  33.0697237  33.5055152  51.7974160
  33.6826118  32.6258255  51.6009095  33.0673073  34.1785657  50.9400379
  33.7206094  34.0063111  52.5141102  30.4893463  33.9714888  50.3087820
  31.1479694  33.8749249  49.2472027  29.7948183  35.0369577  50.6714179
  29.2235457  34.9610460  51.5008666  29.9805412  36.3677593  50.0283301
  30.0795489  36.2269024  48.9520137  28.6646402  37.1144359  50.2007961
  27.8403493  36.4481970  49.9462961  28.5586182  37.3453911  51.2607588
  28.6567426  38.4212612  49.3792548  29.6169058  38.9019524  49.5666651
  28.5538457  38.1331996  48.3330530  27.5540811  39.4549479  49.8940813
  27.6897894  39.9188273  51.0431265  26.5184107  39.6611848  49.1347653
  26.5604986  39.2424206  48.2166309  25.7342879  40.1920138  49.4861512
  31.2051418  37.0320900  50.5600254  31.4288935  37.1185203  51.7788954
  32.0982866  37.5229416  49.7075208  31.8609821  37.3859895  48.7353918
  33.2779844  38.2533754  50.1761850  32.8924223  38.9344986  50.9348107
  34.3413060  37.3157136  50.8733852  34.0166119  36.7467481  51.7445637
  34.9397777  36.3496121  49.9174001  35.5224501  36.8451304  49.1408335
  35.5633409  35.6882488  50.5189544  34.1583336  35.7191371  49.4931950
  35.4325536  37.9965280  51.3487120  35.3549841  37.9067904  52.3013558
  33.9386624  39.0597253  49.1023795  33.9686626  38.7431856  47.9090697
  34.5698452  40.1726422  49.4416643  34.4981253  40.5731334  50.3660903
  35.4770541  41.0189242  48.6053159  35.0078715  41.0945423  47.6243727
  35.6326960  42.3767944  49.2402325  34.6053104  42.7055044  49.3968558
  36.0493564  42.2182390  50.2348954  36.4286488  43.3693462  48.4307615
  36.1972634  43.4726987  47.2148308  37.1629533  44.2412956  48.9862041
  36.7975087  40.3444084  48.3773056  37.5606016  40.8059495  47.4576989
  37.1057638  39.2761705  49.1788494  36.4481944  39.0452614  49.9098648
  38.4643900  38.7051131  49.3030198  39.2131588  39.4956795  49.3526105
  38.6738241  37.9584231  50.6663038  37.9055655  37.1972125  50.8020998
  40.0225650  37.2460818  50.6956332  40.1571546  36.6494156  51.5978418
  40.1552215  36.5858936  49.8385134  40.8326509  37.9717506  50.6230691
  38.5360042  38.9693775  51.8258811  38.8081629  38.4873457  52.7648514
  39.1715748  39.8389298  51.6584604  37.5000145  39.3066846  51.8582740
  38.8023577  37.8201672  48.0711427  38.1390897  36.8160914  47.8001183
  39.9290522  38.0653312  47.2620454  40.8169004  39.1146717  47.5910308
  41.3878242  38.8328948  48.4757611  40.2857377  40.0568402  47.7262521
  41.7653513  39.3399109  46.4201782  42.7663666  39.6811694  46.6840184
  41.2392525  40.0920987  45.8323571  41.7672566  38.0019972  45.7490183
  42.6453737  37.5455484  46.2058174  41.8506015  37.9665566  44.6627874
  40.4304696  37.3294068  46.0907836  39.7853269  37.4140967  45.2163000
  40.7538085  35.8092336  46.2116630  41.1390291  35.3397518  47.3416847
  40.6261489  35.0460914  45.1198918  40.2737296  35.4893534  44.2835757
  40.7584129  33.6553934  44.9393053  39.9651669  33.1338974  45.4749436
  40.4916617  33.3425549  43.4566947  39.4682621  33.5663203  43.1555596
  41.1562185  33.9601962  42.8525540  40.7017466  31.8600764  43.0499782
  41.7072621  31.4892547  43.2488015  39.9901093  31.2568598  43.6137175
  40.3875345  31.5006950  41.6313238  41.2485192  31.4285859  40.7461841
  39.1808768  31.3221704  41.3230071  38.4526455  31.3012836  42.0225398
  38.9270079  31.2452002  40.3484682  42.1327261  33.1370164  45.4834642
  42.2016331  32.1477117  46.1914829  43.3012555  33.8204989  45.2612970
  43.3009405  34.5889162  44.6058290  44.5962375  33.5363976  45.8498292
  44.6483089  32.4533882  45.9615399  45.7043699  34.1827232  45.0031861
  46.6528930  33.9755528  45.4986454  45.7239421  33.5937120  44.0862441
  45.6750904  35.6781676  44.7093306  46.7601128  36.2437307  44.4394673
  44.6619112  36.2870439  44.7093787  44.7068757  34.1492112  47.2747955
  45.6811357  33.8017410  47.9235223  43.6989787  34.7501117  47.8315243
  42.8994746  34.9916772  47.2635989  43.7158359  35.1947050  49.2966093
  44.6625454  34.8727825  49.7304378  43.6292173  36.7661269  49.2953839
  44.3154677  36.9744084  48.4745429  42.6576464  37.1137906  48.9442716
  44.0982597  37.3824773  50.6536420  43.4268757  37.0104674  51.4275619
  45.0673787  36.9593739  50.9180274  43.9876546  38.8630085  50.7634016
  42.9449937  39.4735218  50.7344325  45.0750382  39.5038732  51.0777125
  45.8670211  38.8804060  51.1421476  45.0958499  40.4554264  51.4156678
  42.7565880  34.4874079  50.3153176  42.8729125  34.6396047  51.5278004
  41.9482471  33.5505998  49.7519017  41.9309493  33.5362095  48.7421505
  41.3232895  32.4708783  50.5746114  40.9447065  33.0627041  51.4079883
  40.2347759  31.7156741  49.7497577  40.6842682  31.3866837  48.8128361
  39.6967547  30.4531822  50.4937460  38.9271764  30.0986631  49.8080518
  40.5697821  29.8196799  50.6505875  39.2622477  30.7479529  51.4489496
  39.1803221  32.7477786  49.2947346  39.6536396  33.3452432  48.5155642
  38.2812049  32.3218303  48.8494691  38.5811582  33.6116443  50.3427010
  39.2944169  34.2855666  50.8172362  37.8328726  34.2311051  49.8482934
  37.9978407  33.0214564  51.0494676  42.4476840  31.4760283  51.2113962
  43.3177681  30.9902655  50.4947030  42.3212477  31.1990958  52.5226363
  41.5530084  31.6563771  52.9925322  43.1615699  30.2219481  53.2969922
  44.1206252  30.0292273  52.8161890  43.4462686  30.7508941  54.7066926
  42.5730288  31.3023568  55.0551772  43.6380974  29.9603982  55.4322392
  44.5403695  31.8231422  54.7794781  45.4840254  31.3621195  54.4878076
  44.3820401  32.6812767  54.1262957  44.9009840  32.4191937  56.1181499
  44.0100062  32.7121565  56.6735164  45.3566791  31.6900734  56.7880944
  45.7902365  33.6029187  56.0216623  45.8608847  34.0990400  55.1447516
  46.5329534  34.0735435  56.9431668  46.4634825  33.5659673  58.1271334
  47.0011177  33.9255793  58.9028471  45.7753800  32.8606895  58.3489401
  47.4278251  35.0087336  56.7300851  47.9149744  35.4083193  57.5194626
  47.6531782  35.3755604  55.8164360  42.3941907  28.8791196  53.2945171
  41.5095133  28.6513977  54.0973170  42.8437949  28.0136505  52.4161700
  43.5094281  28.3038150  51.7141466  42.3773867  26.6112320  52.4459844
  41.3232222  26.5490319  52.7161165  42.5124763  26.0837224  51.0409513
  43.5400851  25.8494211  50.7630595  42.0659097  25.0902620  51.0823594
  41.9207252  26.9377940  49.9529113  40.6452221  26.9480147  49.4771103
  40.6135372  27.9362047  48.5738780  39.7307199  28.2895108  48.0618151
  41.8199988  28.3969271  48.2845988  42.1174359  29.0860818  47.6088052
  42.7053591  27.7610459  49.1361078  43.7761635  27.8525494  49.2429026
  43.0958581  25.8785587  53.4918091  44.3384997  26.0847442  53.7117220
  42.4332638  24.9067548  54.1847179  41.4655568  24.6620514  54.0305639
  43.0518638  24.2325799  55.3869899  44.0994444  24.5324967  55.4140004
  42.3288401  24.7453322  56.6746994  41.2906000  24.4134509  56.6712047
  42.8480148  24.0790119  57.9864544  42.3816850  24.4864095  58.8834890
  42.6799826  23.0032939  58.0383892  43.9239251  24.2371539  58.0606712
  42.3122584  26.2483702  56.9359299  42.0054990  26.8956849  56.1143561
  41.7396304  26.5021156  57.8280120  43.3405601  26.5895732  57.0554250
  43.0856274  22.7677926  55.2529838  42.0734530  22.1046454  55.0152750
  44.2143311  22.1295487  55.6366529  45.0084078  22.7445618  55.7429666
  44.4984343  20.6778042  55.5433705  43.5557178  20.1324269  55.5875356
  45.2337191  20.3348426  54.2006643  46.1725904  20.8740246  54.0745503
  45.4751268  19.2719191  54.1966676  44.3852660  20.5325736  52.9120620
  44.1806413  21.7942276  52.3649181  44.6633709  22.5308694  52.9900118
  43.5012173  22.0389526  51.0970672  43.2346652  23.0206314  50.7342219
  43.0862943  20.8958458  50.3747983  42.3932947  21.0372879  49.1777128
  42.3262898  20.2342483  48.6559479  43.3458912  19.6514410  50.8576547
  43.0729903  18.7767169  50.2860055  44.0520939  19.4567492  52.0594794
  44.2175387  18.4283797  52.3449334  45.3731360  20.2487926  56.7272874
  46.5260454  20.6769253  56.9296999  44.6940521  19.5526501  57.6745333
  43.8605154  19.0061405  57.5113044  45.1498577  19.0858887  59.0089820
  46.0400861  19.6369002  59.3122636  44.1149477  19.4858016  60.0639349
  43.1913106  18.9666007  59.8081512  44.4217594  19.2539442  61.0838412
  43.8218173  21.0383691  60.0856722  43.2044793  21.2394424  59.2101362
  42.9087259  21.2611215  61.3530804  42.5905037  22.3035057  61.3695360
  41.9717096  20.7099033  61.2739670  43.5220586  21.0298272  62.2239588
  45.0191276  21.9787186  60.0057493  44.7437106  22.9892537  60.3075061
  45.8148252  21.5261784  60.5975035  45.3929104  22.0374915  58.9835300
  45.3741725  17.5388626  58.9884531  45.0297464  16.8873342  58.0736813
  45.8761220  16.9992959  60.0773995  46.0785287  17.5524977  60.8978257
  45.9832752  15.5598275  60.4328308  46.6175810  15.4727697  61.3149743
  44.6039709  14.9403391  60.7392294  44.0505087  15.0767305  59.8101560
  44.6346001  13.8750144  60.9678014  43.9152995  15.6185730  61.9300042
  43.9663955  16.7071178  61.9536742  42.8419348  15.4501139  61.8427698
  44.3157324  15.1626163  63.3288684  43.7329300  14.2520974  63.8900263
  45.2430237  15.7564235  63.8693523  46.7414642  14.7823680  59.3078900
  47.9066507  15.2385923  59.0711081  46.2561719  13.6706515  58.7064023
  45.3819607  13.2787689  59.0262193  46.9997469  12.9745946  57.6353261
  48.0793113  13.0791905  57.7434954  46.7948015  11.3951551  57.7386670
  45.7238119  11.2176838  57.6407580  47.2326171  10.8354071  56.9121685
  47.4831730  10.8069023  59.0133596  48.5659181  10.8759484  58.9084978
  47.2744895  11.3862483  59.9127535  46.8882980   9.3969657  59.2771585
  45.8632434   9.6260444  59.5685114  46.7295033   8.7471828  58.4165387
  47.5658527   8.7127756  60.4189313  48.6141559   8.8431887  60.1503068
  47.3618006   9.2518552  61.3440562  47.1975839   7.3113914  60.5055327
  47.0537946   6.9310937  59.5809797  47.8809333   6.7151646  60.9501158
  46.3004897   7.2684100  60.9675662  46.7319589  13.5588222  56.2602725
  47.5796792  13.4240470  55.3235729  45.6582926  14.4050646  56.2116317
  45.0666727  14.6000151  57.0066664  45.1754301  15.0043014  54.9653895
  45.0888204  14.1696780  54.2696865  43.7493259  15.4753874  55.1945245
  43.2023142  14.5742474  55.4716974  43.6514650  16.3635144  55.8188208
  43.4043741  15.7324401  54.1930070  46.0646099  16.1400492  54.3944249
  46.0343590  16.4672695  53.2268234  46.8778543  16.7400980  55.2475227
  46.7596028  16.5342062  56.2292177  47.9254108  17.7132660  54.8144621
  47.4528682  18.5964018  54.3844917  48.7746469  18.0731506  56.0807596
  48.0080921  18.3870293  56.7892608  49.4777740  16.8028619  56.6842656
  50.3176461  16.5680826  56.0303503  49.9100191  16.9759007  57.6698232
  48.7269311  16.0277166  56.8375133  49.7465628  19.2516933  55.8985138
  50.1604957  19.6124169  56.8401289  50.5358844  18.8935993  55.2375750
  49.3225003  20.0525273  55.2927619  48.8620555  17.2688372  53.6390492
  49.4743362  18.1217247  53.0061424  48.8179456  15.9415198  53.2811992
  48.3567878  15.3308102  53.9403405  49.5889131  15.3981975  52.1459791
  50.6444929  15.6516116  52.2441249  49.6694624  13.8186025  52.3988629
  49.8411677  13.5685412  53.4458044  48.3161279  13.1821821  52.0495207
  48.4969214  12.1074272  52.0674066  47.5594433  13.4902206  52.7710751
  47.9586763  13.4618940  51.0585154  50.6803304  13.1252430  51.4711359
  51.6958268  13.5204086  51.4978023  50.7278874  12.0830337  51.7867954
  50.2503900  13.2763968  50.4809823  49.0627310  15.8473151  50.7829188
  49.8428976  15.9614974  49.8387009  47.7673701  16.2285139  50.6838123
  47.1574442  16.1961292  51.4882013  47.0392555  16.2036741  49.4425913
  47.2025266  15.2348336  48.9705842  45.5107348  16.3561335  49.7495782
  45.3399923  17.1459715  50.4810865  44.8828252  16.6390804  48.9047287
  44.8203874  15.0716693  50.3034024  45.5280340  14.6259434  51.0024480
  43.5291228  15.5213208  51.0474591  42.8928285  16.0272710  50.3213405
  43.0021397  14.6360940  51.4034965  43.8005639  16.1824631  51.8704480
  44.6523723  13.9571070  49.2939631  45.6736587  13.5958196  49.1734021
  43.9467317  13.2728233  49.7650546  44.3077924  14.4105024  48.3645555
  47.4224158  17.4112561  48.5624806  47.6200822  17.3303352  47.3313028
  47.6894436  18.5453093  49.1388453  47.6860809  18.5200193  50.1485230
  47.9445768  19.8649050  48.5310788  48.2893830  19.8161293  47.4982044
  46.5593479  20.5896751  48.4191937  46.1517986  20.7025208  49.4238177
  46.8785731  21.5474881  48.0083513  45.5089356  19.9225302  47.3711929
  45.3555009  18.8777113  47.6412166  44.5335299  20.3890145  47.5093091
  45.8650872  19.8913569  45.8829621  46.8126329  19.3564334  45.8188172
  45.0355961  19.4683653  45.3162854  46.0838640  21.2789375  45.4626527
  47.0085516  21.6687620  45.5770633  45.2986740  22.2421054  44.9982338
  44.0374693  22.0008205  44.7356946  43.5589510  22.7672617  44.2843724
  43.6037820  21.0948333  44.8415365  45.6620814  23.4432250  44.6915228
  45.1401226  24.1598751  44.2077133  46.5791295  23.7763549  44.9525737
  48.9817909  20.7160769  49.2730919  48.5858300  21.5670105  50.0288855
  50.2716582  20.3969607  49.0793952  50.7963276  19.2968375  48.2383225
  50.8855432  19.6558686  47.2130239  50.2366154  18.3616190  48.2524265
  52.1801638  19.0474848  48.7905429  52.7759270  18.6332487  47.9771777
  52.0464750  18.3820010  49.6433963  52.6962496  20.3887031  49.2891368
  53.4032131  20.8711266  48.6141773  53.2431387  20.1847019  50.2096805
  51.3866132  21.2146564  49.5863746  51.2876682  21.3691086  50.6608300
  51.3969404  22.6626877  49.1517216  51.9674585  23.4885764  49.8054175
  50.8791901  22.8642648  47.9019234  50.6122790  22.0877971  47.3137428
  50.9200250  24.1584142  47.2535710  51.8856619  24.6636039  47.2328657
  50.5327586  23.9730750  45.7477617  50.3909689  24.9224943  45.2314299
  51.3190736  23.3958133  45.2613601  49.2120970  23.2788116  45.5585036
  48.9860775  22.0979612  45.9610761  48.2602789  23.9392754  45.1387582
  49.9325285  25.1779602  47.9330029  50.3167428  26.3592477  47.8496447
  48.9446279  24.7359150  48.7126559  48.8506924  23.7304951  48.7328292
  48.0562506  25.5132519  49.6110139  47.9614903  26.5561517  49.3085549
  46.5483048  24.9864902  49.4981088  46.5665266  23.9839266  49.9254666
  45.8713458  25.4919524  50.1868282  46.0194691  24.6563227  48.0426457
  46.5451816  23.8763526  47.4918526  44.6663978  24.0466077  48.2720977
  44.1277139  23.9697241  47.3276357  44.8167740  23.0664246  48.7245694
  44.0121737  24.6177531  48.9307960  45.8349907  25.9222466  47.2118601
  46.8121478  25.9908484  46.7337805  45.1339603  25.7437740  46.3965047
  45.5767679  26.7582867  47.8618278  48.5028877  25.5340860  51.0688288
  47.7856524  26.1194381  51.8056389  49.4807122  24.8073297  51.4668123
  50.0764907  24.3218091  50.8115125  49.7002579  24.5181360  52.9409232
  49.0763570  25.1574624  53.5655110  49.3914800  23.0511151  53.1728131
  50.0275477  22.3949518  52.5787018  49.5319984  22.7818137  54.2196328
  48.0134978  22.7883776  52.9108684  48.0209175  22.3986582  52.0335635
  51.1929133  24.8327339  53.2938735  52.0898762  24.2248402  52.7171833
  51.4501174  25.7434089  54.2057889  50.7122487  26.1940993  54.7278311
  52.8160026  26.3896888  54.4935804  52.6662485  27.2048158  55.2015671
  53.7244454  25.4967816  55.3647105  53.9970325  24.5998951  54.8084814
  54.6288378  26.0523442  55.6127726  53.0980444  25.0153717  56.7620042
  52.0834232  24.7062535  56.5108274  53.7966078  23.8268762  57.4020944
  53.9601086  23.0343783  56.6718078  54.8424036  24.0079034  57.6503702
  53.3127269  23.5618106  58.3421473  53.0736940  26.0813674  57.7809137
  52.5517747  25.6875723  58.6530488  54.1116405  26.3221818  58.0106432
  52.4995978  26.9164768  57.3795303  53.5672415  26.9541044  53.3025409
  54.8296583  27.0826898  53.3565171  52.8127105  27.3131584  52.2576002
  51.8062433  27.2299995  52.2723381  53.4030859  28.1102346  51.2499990
  54.2480293  27.5484583  50.8517790  52.4412327  28.2937042  50.0759386
  52.3057652  27.2968294  49.6564278  51.1384424  28.9256658  50.4673550
  50.3495478  28.1768359  50.3966788  51.1635982  29.3409371  51.4748355
  50.8423107  29.6694498  49.7276286  53.0506083  29.1419820  49.1443320
  53.4615819  28.5274802  48.5318869  53.8712611  29.5034587  51.7660223
  53.3591588  30.1131087  52.7079780  54.8392148  30.1593285  51.0639713
  55.2833282  29.7002808  50.2815785  55.3573900  31.5293529  51.4908027
  55.0336568  31.7745091  52.5023338  56.8903749  31.4485591  51.5570773
  57.3599412  32.3261603  52.0014011  57.0858112  30.6792382  52.3041052
  57.6723272  31.0752220  50.2447016  57.5204613  30.0183223  50.0256133
  57.1875718  31.6105101  49.4282569  59.0979112  31.4642881  50.4920172
  59.2922116  32.5033394  50.7579495  59.5129265  30.9603303  51.3648796
  60.0038558  31.2140829  49.2151433  61.0463442  31.3792634  49.4872368
  59.9767347  30.1712572  48.8991068  59.6907223  32.1925720  48.1434374
  59.5296119  33.1129981  48.5267903  60.5035662  32.3166016  47.5569209
  58.8954221  32.1882986  47.5208782  54.7017658  32.6742288  50.7055166
  55.3945064  33.6764524  50.4198465  53.4550269  32.6139240  50.2870683
  52.8636873  31.8054191  50.4164412  52.7354293  33.7431384  49.6923975
  53.2755800  34.0763816  48.8062333  51.3801817  33.3995612  49.2092002
  51.4455475  32.5310040  48.5538868  50.7814089  33.1589816  50.0876631
  50.7472834  34.5318195  48.3788642  51.1025682  35.6918034  48.3124105
  49.7889434  34.1659626  47.5364603  49.3033170  33.2964758  47.7045666
  49.4266147  34.8742222  46.9142170  52.6720068  34.9138784  50.6829222
  52.0273410  34.7197310  51.7976162  53.3120986  36.0063184  50.2688767
  53.9080501  36.0861692  49.4573561  53.4038457  37.1890141  51.1558064
  53.7412006  36.8080265  52.1197256  54.3408798  38.2719721  50.6309737
  54.3591894  39.0973778  51.3426410  55.8109389  37.8103610  50.5200331
  56.2928360  37.3816418  51.3987099  55.8055321  37.0611202  49.7283836
  56.4445658  38.6800525  50.3460938  53.8664151  38.5576895  49.2748810
  54.0919915  39.4868348  49.1888316  52.0247016  37.7636376  51.5006849
  51.8278025  38.2815726  52.5479056  51.0341603  37.7660551  50.5793982
  51.2799387  37.3926898  49.6736989  49.7499807  38.4406879  50.6771521
  49.7455174  39.2665642  51.3885000  49.2756540  39.0208941  49.3298291
  49.0941430  38.2711937  48.5596971  48.3064909  39.4557716  49.5741743
  50.2008146  40.0564222  48.7493529  51.1730347  39.5876703  48.5971669
  49.7959233  40.2801154  47.7623755  50.4335242  41.3454930  49.5536211
  51.3003911  42.1340408  49.0867754  49.6245839  41.6588497  50.4404609
  48.6061971  37.5704294  51.2648476  47.5017306  38.1180951  51.4808599
  48.9100211  36.2867417  51.4880677  49.8380612  35.9707457  51.2451872
  47.9158706  35.2707317  51.9083051  46.9072910  35.3478667  51.5022048
  48.5004093  33.8815244  51.4927242  48.6124901  33.8120057  50.4107330
  49.5178331  33.8484117  51.8824167  47.8223572  32.6042526  52.0273936
  47.6232937  32.7124964  53.0935821  46.5257244  32.3177791  51.3060735
  45.8198049  33.0954840  51.5975526  46.6858229  32.2413756  50.2306056
  46.0968091  31.3711698  51.6348020  48.7565615  31.4207091  51.8103102
  49.6653905  31.7450443  52.3172066  48.2475177  30.5273348  52.1720523
  48.9920145  31.3714404  50.7471853  47.6727690  35.3196163  53.5236014
  48.6223577  35.4231167  54.3248190  46.5133723  35.3970864  53.9244500
  20.9493506  42.5174779  46.3745768  20.3631517  43.1328397  45.8288656
  20.7484887  42.7008100  47.3472797  21.8968169  42.7640660  46.1263782
  20.6270493  41.1125078  46.0171512  19.8016770  40.7393382  46.6234567
  20.3342571  40.8312453  44.6108957  19.7159568  41.6001808  44.1477059
  21.2865832  40.8611438  44.0814798  19.7339132  39.4200117  44.4168284
  19.5391178  39.3069739  43.3503495  20.4789516  38.6646608  44.6667684
  18.1726589  39.1550620  45.3368910  17.0457514  40.2042910  44.4110795
  16.1230464  40.2588593  44.9887811  17.4876112  41.1769855  44.1949191
  16.7346662  39.5929657  43.5639600  21.7324915  40.2134274  46.6236430
  22.7444592  39.9952400  45.9635245  21.4913626  39.6725954  47.8319708
  20.6837634  40.0335801  48.3193861  22.3711429  38.6807158  48.4244117
  23.3765269  39.0630441  48.2479799  21.9699538  38.6854181  49.8973278
  22.3129491  39.6527420  50.2643980  20.8832532  38.7438578  49.9587001
  22.3562028  37.5281116  50.8163113  21.9965566  37.7816670  51.8135397
  21.8538862  36.5927313  50.5696499  24.1270725  37.2643193  50.9512654
  24.6244312  38.7133485  52.0407150  24.2896928  39.6634922  51.6244413
  24.1117186  38.5912495  52.9948211  25.6886412  38.7412009  52.2747693
  22.2988688  37.2272349  47.7342174  21.5862540  37.1241032  46.6924229
  23.0131757  36.2137796  48.1870313  23.6096543  36.3528641  48.9901307
  22.8854778  34.8792502  47.6094995  21.8843286  34.7859901  47.1886635
  23.9962522  34.5684035  46.5824469  24.9750038  34.5048926  47.0579589
  23.7542092  33.3206972  45.7799520  22.7709050  33.4424943  45.3256625
  24.5240139  33.2542208  45.0111337  23.6893542  32.4380235  46.4161853
  24.0409248  35.8000748  45.5552257  23.0545862  36.0742950  45.1810070
  24.3636923  36.6913493  46.0933328  25.0611290  35.8643548  44.4452029
  24.8824559  35.1671532  43.6266175  25.1632680  36.8215183  43.9338266
  26.0021666  35.5776271  44.9146133  22.9180950  33.8328231  48.7114821
  23.6080485  33.9624478  49.7489508  22.0616004  32.7659110  48.6371810
  21.4434193  32.8599565  47.8440179  21.7209499  31.7814456  49.6794151
  22.4367907  31.5623224  50.4716641  20.5185382  32.3711599  50.4653878
  19.6093984  32.4070532  49.8651574  20.2230032  31.6057303  51.1829380
  20.6450294  33.7002551  51.2268228  20.9349026  34.4762552  50.5183747
  19.6674050  33.8925739  51.6688228  21.6484849  33.5597871  52.3735256
  21.2383110  32.8001754  53.0389938  22.6160305  33.1976665  52.0259281
  21.7201103  34.8844102  53.0337377  20.9994546  35.5477466  52.7872823
  22.5261641  35.2939435  53.9693123  23.5548200  34.6480652  54.4104658
  24.1868041  35.3119250  54.8347203  23.9204739  33.7842863  54.0359219
  22.3189687  36.5368002  54.3196927  21.7178028  37.1455620  53.7829352
  22.9729897  37.0907251  54.8540394  21.4241432  30.4277966  49.0607764
  21.1926878  30.2462257  47.8796982  21.2686143  29.3974988  49.8962368
  21.2903528  29.7090310  50.8567445  20.8179885  28.0637308  49.4594896
  20.7745517  27.9954532  48.3724976  21.5910044  27.3494582  49.7429698
  19.4688916  27.5519964  49.9388760  18.9642676  27.8042371  51.0355306
  18.8187707  26.7321277  49.1398718  19.1163115  26.7134636  48.1748731
  17.5492389  26.0773580  49.4885702  17.4352562  26.0381738  50.5718858
  16.2121231  26.6089175  48.7938630  16.2586630  26.3624624  47.7331114
  14.9259039  25.9960340  49.2901683  14.0748321  26.4497988  48.7823577
  14.9238689  24.9169790  49.1361024  14.7911461  26.0398506  50.3709197
  16.1851896  28.1208290  49.0052752  16.2507060  28.4090638  50.0544311
  17.0763194  28.5192742  48.5202676  14.9950378  28.7870199  48.2494444
  13.9974975  28.5433132  48.6149858  15.1714124  29.8527672  48.3949677
  15.0896189  28.6443253  47.1729719  17.5859774  24.5760953  49.2441429
  18.0598993  24.1140656  48.1893820  17.0977460  23.7753105  50.1852571
  16.8254644  24.1501057  51.0827487  17.1971209  22.2687398  50.2105435
  17.6356417  21.9562799  49.2628256  18.0507359  21.8190852  51.4117991
  17.5315169  22.0219277  52.3484776  18.1606474  20.7347661  51.3950732
  19.4389208  22.3367201  51.3800065  20.0304887  22.0606692  50.5071129
  19.4519954  23.4266181  51.3875538  20.2527697  21.9516557  52.5904299
  21.1917888  22.5050413  52.5802308  19.7541801  22.3134512  53.4896587
  20.4123408  20.4598631  52.6667754  20.4046436  19.9659924  51.7857915
  20.0756768  19.6259570  53.6002607  20.0121638  19.9333400  54.8285800
  20.4033070  20.7825824  55.2105536  19.6258557  19.1798639  55.3791613
  19.8335873  18.4113662  53.2356487  19.8049313  18.1398428  52.2632528
  19.6113769  17.7159695  53.9336076  15.9140335  21.4728690  50.2867619
  14.8974274  22.0030896  50.5475976  15.9890817  20.1479953  50.1601156
  16.8616135  19.7196962  49.8856191  14.9359430  19.2393273  50.5389244
  14.7607874  19.2746960  51.6141776  13.9609841  19.5684522  50.1794317
  15.3367313  17.7908324  50.1319999  16.3287939  17.4963378  49.5136384
  14.4401271  16.8454909  50.5278203  13.5250145  17.1455858  50.8321425
  14.5633860  15.4077345  50.2427603  15.1381112  15.3156185  49.3211820
  15.3031538  14.7993661  51.4456041  16.2585796  15.3164936  51.5342078
  14.6046591  14.9534714  52.2680743  15.4649351  13.7322660  51.2932093
  13.1936527  14.7861354  50.0964967  12.2096990  15.3066308  50.5657149
  13.1109936  13.5947868  49.5467215  13.9994277  13.3074227  49.1617453
  12.0264323  12.6450641  49.2619989  11.3587381  12.7652094  50.1151399
  11.2983818  13.0186370  47.9782066  10.8829140  14.0235037  48.0538993
  12.0201138  12.7419992  46.6902335  12.5089971  11.7712963  46.6076069
  11.4109230  12.8977689  45.7998839  12.9438071  13.3088921  46.5739226
  10.2963690  12.1048254  47.8551819   9.5972047  12.5158848  47.3415678
  12.5660882  11.2054925  49.1631988  13.7530997  11.0694239  49.0817126
  11.7109538  10.1527920  49.1902698  10.7268172  10.3500073  49.0776584
  12.0913018   8.7466804  49.2075884  13.1408280   8.7079309  48.9158701
  11.9869727   8.1056455  50.5454336  12.2377833   7.0630156  50.3501840
  13.0387112   8.5645422  51.5230027  14.0344076   8.4109861  51.1069506
  12.8260306   9.5979730  51.7966591  13.0464108   7.8419650  52.3390456
  10.7397962   8.1932101  51.1254903  10.1162112   7.7500193  50.5455559
  11.2417690   7.8986877  48.2120648  10.0643011   8.2593248  47.9790333
  11.7258909   6.7813599  47.5910772  12.7066673   6.5648748  47.6974341
  11.0179640   5.9615911  46.6265440  10.0009292   6.3435811  46.5380531
  11.6734476   6.1405033  45.2074654  11.1775330   5.4442755  44.5311225
  11.2773901   7.5321046  44.5990592  10.2483636   7.5062564  44.2405425
  11.2000324   8.2687298  45.3987460  12.0069187   7.8928742  43.8739806
  13.1469641   5.8570302  45.0515115  13.6477241   6.5781964  45.6974670
  13.2727984   4.8847890  45.5279739  13.3933976   5.9387146  43.9928809
  10.8988371   4.4637018  47.0142556  11.8380491   3.8334917  47.5397105
   9.7266789   3.8569888  46.7316429   8.9720960   4.3675128  46.2956716
   9.4298098   2.4851959  47.0353995   9.6848866   2.3777525  48.0896725
   7.9263357   2.2220185  46.8267465   7.6164636   2.5648604  45.8395590
   7.8814106   1.1368095  46.9184151   7.0309121   2.9014912  47.9210327
   6.7165089   3.8795164  47.5567263   6.1487168   2.2759362  48.0570925
   7.6326836   3.0128848  49.3002493   8.2621613   2.0383943  49.8097054
   7.5087152   4.0827809  50.0310059  10.2565257   1.5366440  46.2383278
  10.5791763   0.4644210  46.7531909  10.5464324   1.8824100  44.9713470
  10.1497335   2.7124018  44.5544015  11.4310840   1.1475049  44.0649583
  11.9877412   0.4260028  44.6630114  10.5882574   0.2515442  43.0390473
   9.7777085   0.8510942  42.6247392  11.2092560  -0.1009161  42.2154986
   9.9962703  -1.0252975  43.5240628  10.8032312  -1.6078677  43.9685020
   9.1105145  -0.8281057  44.1279262   9.4467793  -1.8423212  42.3794716
   8.9495703  -1.1838828  41.6671901  10.2576246  -2.4047256  41.9165122
   8.3717352  -2.7522610  42.8770803   8.0278671  -2.5369412  43.8020110
   7.9671361  -3.9505786  42.4046177   8.1551161  -4.3220296  41.1257926
   8.4038605  -3.6796779  40.3871380   7.5983787  -5.1175794  40.8478569
   7.2234460  -4.6814681  43.1691267   7.0556090  -4.3266066  44.0997205
   6.9986832  -5.6439027  42.9610372  12.3481966   2.0533440  43.3101752
  11.9360906   3.2039906  43.1159866  13.4599151   1.4819086  42.8338932
  13.5718392   0.4807815  42.9068142  14.4198243   2.0255129  41.8977212
  14.6914448   3.0430878  42.1785481  15.6707988   1.1035548  41.7958441
  16.1229809   1.2511544  42.7765814  15.2088191   0.1416616  41.5734995
  16.6649644   1.7620969  40.8514382  16.7187341   2.9970779  40.6806955
  17.5679611   1.0804108  40.2883225  13.8201158   2.0678327  40.4323534
  14.1337300   1.2178256  39.6261767  12.9986323   3.0248178  40.0680477
  12.5785269   3.7149112  40.6741686  12.3439056   3.1029056  38.7784178
  12.9863225   2.7126778  37.9890365  11.0992211   2.1475755  38.7696880
  11.5829643   1.1926881  38.9753282  10.0484258   2.4705436  39.8383923
   9.3623183   1.6243174  39.8738187  10.5041205   2.4920261  40.8283321
   9.4175625   3.3352578  39.6325388  10.4746803   2.2064923  37.5109288
  11.0939737   1.9771583  36.8141636  11.9925133   4.4486401  38.3144406
  11.4736223   5.1802013  39.1441459  12.0412891   4.7859967  37.0017290
  12.4208037   4.1457092  36.3190134  11.4576626   6.0020274  36.3502988
  11.9880426   6.8802417  36.7184541  11.7266790   5.9829250  34.8199426
  11.4173031   6.9680340  34.4707326  12.7723015   5.7896417  34.5803282
  10.8513979   5.1538713  33.8626442   9.8123340   5.3534956  34.1245533
  11.0265798   5.5156151  32.8494500  11.0439781   3.6922730  34.0894762
  10.2486037   2.8918538  33.6517359  12.1156027   3.3094938  34.6249617
   9.9586135   6.1869800  36.5511072   9.4807808   7.2896394  36.3953712
   9.1808236   5.1341079  36.8633226   9.6168168   4.2250724  36.9238571
   7.7783733   5.2234144  37.0885344   7.4723299   6.0764916  36.4829706
   7.0865522   3.9361365  36.5632214   7.5333076   3.7694976  35.5830470
   7.2634720   3.1389777  37.2852583   5.5993470   3.9947886  36.5405660
   5.1359354   3.4600562  37.3696684   5.1174440   4.9684965  36.6286913
   5.0260844   3.3836316  35.2623899   4.2919695   2.3275019  35.3281135
   5.1778066   4.0541483  34.2101293   7.4781472   5.6713595  38.5629422
   6.3211443   6.0600470  38.8520075   8.4973165   5.7311092  39.4542865
   9.4362095   5.4785750  39.1807787   8.2934678   6.2696106  40.8424180
   7.3033308   6.7216617  40.9005433   8.5664635   5.2750667  41.9192912
   9.5333044   4.8132014  41.7192906   8.4730647   5.8783277  42.8223154
   7.6069274   4.0858274  41.9358245   7.6693822   3.5671530  40.9791757
   7.8925683   3.3173522  42.6541246   6.1196651   4.4045552  42.1656509
   5.2854721   3.5115727  41.9376998   5.8236779   5.4905744  42.6860107
   9.0747307   7.5521775  41.0862543   8.6743821   8.4959675  41.7015547
  10.3431281   7.5229922  40.5887574  10.7515007   6.6276994  40.3611993
  11.3526615   8.5746178  40.8841118  11.3530879   8.5884250  41.9740243
  12.7143919   8.0656100  40.3905228  12.6636081   7.6214358  39.3964250
  13.7741550   9.2589813  40.3511345  14.4996688   9.1879749  41.1614977
  14.4239220   9.1720510  39.4803038  13.4030136  10.2830636  40.3913056
  13.2627319   6.9799401  41.3422615  13.6584912   7.5102904  42.2084046
  12.4622560   6.3134579  41.6634156  14.3991238   6.1809891  40.7443228
  14.6720500   5.4248978  41.4804877  13.9866959   5.6947192  39.8602725
  15.2186994   6.8113135  40.3992341  10.9572910   9.9738454  40.3568068
  11.0451370  10.9752198  41.0675011  10.7204946  10.0299595  39.0676175
  10.8311117   9.1956067  38.5092992  10.6771071  11.3187850  38.3306279
  11.5581821  11.8751393  38.6504353  10.7069820  10.9979873  36.8150725
   9.9600089  10.2073140  36.7445784  10.4727180  11.8096254  36.1262590
  11.9941314  10.2713066  36.3599637  12.1617440   9.4351933  37.0388826
  11.6854178   9.7380255  34.9338678  12.4718905   9.1784195  34.4274995
  10.9659104   8.9564591  35.1779254  11.2227626  10.4659079  34.2673565
  13.1895476  11.2091033  36.3287765  13.1040639  11.9448250  35.5290822
  13.3969510  11.7291510  37.2639954  14.1647853  10.7455922  36.1798842
   9.4856248  12.1639658  38.8006792   9.6254449  13.3269711  38.9826075
   8.3462056  11.5869290  39.1140712   8.2616932  10.6202896  38.8337750
   7.1893997  12.2158518  39.7651384   6.8357812  12.9314321  39.0228453
   6.1027678  11.0805332  39.9163835   5.8708740  10.6877252  38.9264191
   6.4368933  10.2805335  40.5770352   4.8206607  11.5989726  40.5705750
   4.2238106  10.6875564  40.6050818   4.9797145  11.7358755  41.6401822
   4.1222747  12.7321614  39.7935377   4.5505628  13.8676350  39.7717034
   2.9950061  12.4375502  39.2123277   2.6830254  11.4870084  39.0736209
   2.4474492  13.2246790  38.8949798   7.4744742  12.9040814  41.0642210
   7.3922163  14.1291172  41.1714360   7.9757757  12.1151011  42.0156003
   8.1775214  11.1879943  41.6693755   8.3285284  12.5028563  43.3362404
   7.4786987  13.0155479  43.7868365   8.8040765  11.1958963  44.1103688
   9.1861669  10.4093265  43.4596639   9.4732382  11.5681971  44.8860715
   7.6205405  10.5182717  44.8478679   7.2481482  11.2617123  45.5526515
   6.8494544  10.2517590  44.1250282   7.9740968   9.1991894  45.5452332
   8.1447465   8.4531727  44.7690715   8.9201865   9.3424851  46.0672299
   6.9475225   8.6841216  46.4997794   6.6821965   9.5069288  47.1636267
   6.0876434   8.4139773  45.8868114   7.4218461   7.4845491  47.2213886
   7.3361040   6.7201296  46.5668574   8.3677568   7.6832348  47.5144464
   6.8096894   7.3271129  48.0091568   9.4636154  13.5626208  43.2867628
   9.3500204  14.7155978  43.8453081  10.5123821  13.3845020  42.4984042
  10.5502914  12.4826901  42.0451942  11.6836095  14.2899861  42.2469553
  12.0310072  14.5500684  43.2468417  12.8554264  13.4787624  41.5607032
  12.5148610  13.2020172  40.5629420  14.0541556  14.3410111  41.3795519
  14.2757086  14.7178402  42.3780625  14.8352929  13.6976599  40.9745524
  13.8145876  15.2010336  40.7541972  13.2136062  12.3419526  42.3034939
  12.5846959  11.6677738  42.0359966  11.2149547  15.5757652  41.6088037
  11.7585756  16.5667383  42.0426710  10.2102535  15.6134030  40.6892105
   9.7897001  14.7413133  40.4016441   9.7121959  16.9343994  40.2208612
  10.5507220  17.6273111  40.1512380   9.1354988  16.8474986  38.7400209
   9.2253935  17.7914717  38.2024953   9.6115626  16.1390930  38.0620606
   7.6180331  16.5741859  38.6774634   7.3632241  15.7770192  39.3758184
   7.2112735  17.5501851  38.9421750   7.0860376  16.1052766  37.2868714
   7.5996401  16.6431618  36.4900072   7.2668382  15.0341713  37.1966243
   5.6295454  16.3906830  37.2577305   5.1943578  15.8265277  38.0826187
   5.5341934  17.4379015  37.5446908   5.0629070  16.0942642  35.9386849
   4.0567758  16.1313459  36.0188415   5.2879597  16.8311699  35.2856708
   5.3780844  15.2080707  35.5706839   8.7704874  17.5677672  41.1894977
   8.7695680  18.7664994  41.3343705   7.9122440  16.7693312  41.8225679
   7.9295811  15.7692864  41.6821757   6.9284155  17.1841998  42.8489432
   6.1690008  17.8595711  42.4549061   6.3127514  15.9208938  43.2756905
   5.7220696  15.5446287  42.4404517   7.1620239  15.3262583  43.6122090
   5.3480315  15.9882074  44.4528114   5.7112087  16.5408735  45.3192769
   4.4455659  16.5211662  44.1534476   4.9944389  14.5131520  44.8739430
   5.7247975  13.8873967  45.6237023   3.8354738  13.9456376  44.5812282
   3.2181255  14.3950528  43.9201608   3.6354086  12.9817108  44.8068810
   7.6167750  17.8855161  44.0256415   7.1787259  18.9001514  44.5808611
   8.7572205  17.3656902  44.5251122   9.1356548  16.4669952  44.2619872
   9.6172419  17.9932371  45.6058643   9.0845426  18.0736568  46.5534214
  10.8357654  17.0687962  45.8280567  10.5489275  16.0858247  46.2016758
  11.2771721  16.8312740  44.8601442  11.9801106  17.6449969  46.7182488
  12.2705611  18.6080281  46.2983567  11.4725289  17.8993944  48.0814585
  10.6836296  18.6485951  48.0148527  11.2858616  16.9397017  48.5633773
  12.3195319  18.3705878  48.5801191  13.1558508  16.6567602  46.6872895
  12.7537417  15.6532816  46.8267238  13.6639417  16.6607040  45.7229615
  14.0063188  16.9225680  47.3151035  10.0353324  19.4286762  45.0684891
   9.9367549  20.3855147  45.8428442  10.6473717  19.6546994  43.8694884
  10.7314788  18.8452024  43.2713740  11.0064049  21.0060550  43.3328410
  11.7186063  21.5026838  43.9918022  11.5711955  20.8510798  41.9486916
  11.0820340  20.0484158  41.3968298  11.3109100  21.7339322  41.3648017
  13.0804627  20.6959909  41.7836796  13.5958316  21.4580643  42.3682644
  13.4944002  19.2849072  42.3425767  13.2431089  19.2397437  43.4022522
  12.9739544  18.4861234  41.8142012  14.5705796  19.1165068  42.3029296
  13.4640104  20.7402442  40.3543900  13.3018145  21.7105001  39.8849196
  14.5145493  20.5034352  40.1858962  12.8623313  19.9530414  39.9000840
   9.7324904  21.8970385  43.3816991   9.7444300  22.9704742  43.9278004
   8.5924016  21.3853346  42.8821779   8.6774563  20.4973388  42.4085440
   7.2198281  22.0405357  43.0427121   7.2531791  22.9952972  42.5179073
   6.1307228  21.1551292  42.3093219   6.4726582  20.7562229  41.3543065
   5.7605845  20.3431787  42.9352883   4.9008470  21.9822011  42.0256861
   4.5538545  22.3901100  42.9750581   5.1409650  22.8848781  41.4638876
   3.7817241  21.1859816  41.3428084   3.6237986  21.1199432  40.0887923
   3.0480313  20.4397097  42.0660646   6.8540831  22.3689341  44.4736708
   6.3183250  23.4608937  44.7851673   7.0114050  21.4831640  45.4739905
   7.3654739  20.5743700  45.2116385   6.7543032  21.7048939  46.9446780
   5.8291108  22.2723738  47.0451241   6.6914989  20.4326796  47.7888066
   7.6943247  20.0319831  47.6408716   6.4814360  20.7422273  48.8126004
   5.6194124  19.3599635  47.3911931   6.0247846  18.6533777  46.6669606
   5.5790116  18.8572878  48.3575185   4.2406360  19.8206173  47.0109732
   3.6160452  19.0482309  47.4597588   4.1067220  20.8291553  47.4021486
   4.1276515  19.7613765  45.4672460   4.8876636  20.3392310  44.9413474
   4.1918431  18.7048107  45.2071535   2.8678124  20.3449262  44.9658088
   2.6988557  20.0180126  44.0252339   2.0407744  19.9929530  45.4264901
   2.7891195  21.3466159  44.8632165   7.7388443  22.7564788  47.5197948
   7.2547255  23.5216701  48.3572354   9.0365005  22.7858574  47.1112345
   9.3080312  22.1378642  46.3856479   9.9735450  23.8438260  47.4873846
  10.0344452  23.9148999  48.5733587  11.3738847  23.5463228  46.9097130
  11.3464460  23.2526120  45.8603889  12.3340732  24.7680365  47.0732309
  13.3205465  24.4563308  46.7299917  12.0552537  25.6767207  46.5397019
  12.4117102  25.0205318  48.1307367  11.9541615  22.3072221  47.6575851
  12.1089937  22.6770448  48.6711724  11.2940196  21.4441524  47.7437435
  13.3282059  21.7841515  47.1952125  14.0750747  22.5778793  47.1782752
  13.7498884  20.9885886  47.8095120  13.2541910  21.3264260  46.2087496
   9.5208362  25.1992301  46.9703894   9.5523298  26.1732740  47.6947223
   9.0809839  25.2181869  45.6865282   8.9484358  24.3251980  45.2336463
   8.6572581  26.4497108  45.0857602   9.4798151  27.1488291  45.2365413
   8.3581486  26.1633712  43.5976266   7.7673568  25.2529927  43.4962253
   7.4633510  27.3547725  43.0158458   7.8856522  28.2981531  43.3619595
   7.3753845  27.3174670  41.9300410   6.4063540  27.2235758  43.2474603
   9.6532739  25.9812772  42.8191453   9.9598558  26.9975430  42.5715337
  10.4384004  25.5289860  43.4250423   9.3649037  25.1701637  41.5622472
   8.6794717  24.3270560  41.6485690   8.8572606  25.6909826  40.7503690
  10.2823453  24.6925499  41.2183210   7.4595217  27.0638929  45.8723836
   7.5067134  28.2998314  46.1687775   6.5078522  26.2483217  46.3481257
   6.5522313  25.2412338  46.2856406   5.3524101  26.7192235  47.0819229
   4.7685285  27.3550623  46.4164220   4.5772353  25.5287312  47.6047391
   4.4167270  24.8324042  46.7816559   5.2258867  25.0655904  48.3482808
   3.2740022  25.9260064  48.3479203   2.6886730  25.0272192  48.5420129
   3.5303099  26.3366921  49.3245183   2.4562285  27.0522227  47.5727877
   1.9515267  27.9897942  48.2947638   2.3342236  27.0435263  46.3393008
   5.8165782  27.6987949  48.2774612   5.1358359  28.6926057  48.5518998
   6.9328853  27.4340609  48.9804054   7.6195318  26.8333290  48.5471183
   7.2246029  28.0734408  50.2236919   6.2750354  28.4440792  50.6097717
   7.7826580  27.0053953  51.1999879   8.5745145  26.4302747  50.7200925
   8.1829740  27.5169052  52.0753217   6.6799060  26.0424578  51.6373121
   6.0641601  25.7796408  50.7771464   7.2209381  25.2159951  52.0981196
   5.8277248  26.6377857  52.7130343   5.6344718  25.9460679  53.7137826
   5.3506089  27.8012698  52.6385714   8.1856215  29.1921141  50.0557078
   8.3556981  29.9831165  50.9747537   8.8815982  29.2415457  48.9155806
   8.6346009  28.5351226  48.2373043  10.0410486  30.0891789  48.6932984
  10.1291049  30.7738202  49.5368703  11.2730432  29.1856356  48.6187958
  10.9714164  28.4278716  47.8956662  12.1782972  29.7140868  48.3198736
  11.4588861  28.3788578  49.9652661  11.7713600  28.9955482  51.0154591
  11.2222992  27.0640589  49.8696904  11.5540783  26.5614036  50.6804703
  11.0495984  26.6962095  48.9450493   9.8440555  31.0175592  47.5003900
  10.5084778  32.0352860  47.2180444   8.8324043  30.6943234  46.7006644
   8.3856686  29.8257221  46.9577021   8.2703176  31.3547226  45.5082072
   7.6027611  30.6137442  45.0684005   7.4795307  32.6127111  45.9574410
   8.1766977  33.3144811  46.4152385   6.9936421  33.0714842  45.0963141
   6.4960901  32.2947710  47.0239238   5.4395400  31.4546202  46.8440187
   5.1965781  30.9908308  45.9803238   4.7232668  31.4425035  48.0063565
   3.8172624  30.9082885  48.2516532   5.3626784  32.2603579  48.8882360
   4.9815523  32.6309551  49.7470147   6.4831393  32.7321257  48.3287509
   7.1955910  33.3464621  48.8592255   9.3301999  31.5997936  44.4811262
   9.5080818  32.6699710  43.9750920  10.1970863  30.6714784  44.4485263
   9.9295839  29.8460225  44.9654063  11.3779375  30.5903060  43.5778956
  11.9706967  31.4910904  43.7370336  12.1748364  29.3016087  43.8975067
  11.7035397  28.4176919  43.4677737  13.6510922  29.3095102  43.4890237
  14.2080401  28.5665264  44.0598890  13.7219709  29.1270856  42.4167376
  14.1241860  30.2564321  43.7490768  12.2101280  29.1302264  45.2954966
  12.9389556  29.6171832  45.6870108  11.1470473  30.6562838  42.1114492
  10.1744056  30.0107711  41.6851888  11.9482400  31.3621703  41.3323688
  12.7431190  31.8193637  41.7557382  11.8925428  31.3943466  39.8959050
  11.1459996  30.6540779  39.6081978  11.4857714  32.7579069  39.3321964
  12.0377666  33.5958725  39.7578901  11.6094617  32.9457614  38.2656539
   9.9810698  33.0525682  39.6774512   9.3509929  32.2294572  39.3404175
   9.9683859  33.0103012  40.7665576   9.5122986  34.3909105  39.1714464
  10.1637152  35.1220529  39.6501815   9.6854151  34.2568994  38.1036542
   8.0026607  34.5878069  39.5414175   7.3883731  33.9098023  38.9489139
   7.7830003  34.3542885  40.5832047   7.5464194  35.9799662  39.3912845
   8.3693878  36.5595786  39.3083467   6.9802672  36.1549725  38.5733936
   7.0465273  36.2743384  40.2180571  13.2144258  30.8367530  39.2524886
  14.2218827  31.1242310  39.8880996  13.2285927  30.0576754  38.1188568
  12.0784099  29.6141785  37.3649963  11.4306805  30.4523854  37.1081999
  11.4267111  28.9821513  37.9682657  12.7168914  28.7952162  36.2162510
  12.8537816  29.4852690  35.3836717  12.0334252  28.0665415  35.7803446
  14.0129006  28.3645729  36.6238200  14.6370354  28.4554216  35.7348296
  14.0185929  27.3555846  37.0361428  14.4399176  29.3164924  37.7554775
  14.8166083  28.6667569  38.5454445  15.6607328  30.1435949  37.2784828
  16.8527602  29.7563405  37.4228808  15.4367379  31.4311799  36.9318212
  14.5169627  31.8463377  36.8898977  16.5079113  32.3964846  36.4750230
  17.1520008  31.7817996  35.8461975  15.8595869  33.4545820  35.5018745
  15.1289771  33.9468899  36.1437017  16.6926933  34.1061084  35.2381547
  15.3131998  32.7577364  34.3142799  16.1731912  32.2834850  33.8414158
  14.6300422  32.0041606  34.7061027  14.4847950  33.6856717  33.3872066
  13.4739977  33.0937134  32.8522604  14.8135553  34.9033007  33.1723821
  17.1993139  33.0286467  37.6922469  18.2839710  33.5936574  37.4696340
  16.7574671  32.9254055  38.9489459  15.8780631  32.4337045  39.0195062
  17.4597598  33.3753557  40.1719546  18.1255302  34.1996381  39.9161897
  16.4589980  33.8215915  41.2052820  15.7827178  33.0165612  41.4928087
  17.0216672  33.9644436  42.1278310  15.7080645  35.1225336  40.8359441
  14.6328492  35.3247722  41.3893193  16.2157579  35.9334271  40.0128803
  18.2807140  32.2133895  40.8143008  19.1908928  32.4906309  41.6130345
  17.9106449  30.9937229  40.4408641  17.2808650  30.9175632  39.6549385
  18.7651194  29.8494619  40.7899903  18.9039128  29.9439705  41.8669789
  18.1025241  28.5174577  40.4449910  17.8812341  28.4603280  39.3792204
  18.9463935  27.3026138  40.8073806  18.2965154  26.4324382  40.7149175
  19.8218736  27.1918980  40.1675552  19.1875232  27.3601125  41.8688186
  16.7123762  28.4282145  41.2295863  16.2245937  27.4851097  40.9831467
  16.8216196  28.4533719  42.3138071  15.9890195  29.1758926  40.9042671
  20.0362759  30.0830179  40.0926868  20.0991622  30.1994205  38.8426462
  21.1024639  30.1185169  40.8598239  20.9320797  30.0048633  41.8488396
  22.4661063  30.2713578  40.3475762  22.5480532  31.1253682  39.6752289
  23.4351841  30.5956329  41.5116837  23.5465991  29.7929043  42.2405967
  24.8568712  30.8970407  41.0382273  25.1554058  30.1167241  40.3381663
  25.0324008  31.8560272  40.5507498  25.5733515  30.8416135  41.8577959
  23.0306217  31.8364177  42.2901437  21.9805309  31.6802764  42.5371940
  23.6264695  31.9345511  43.1975771  22.9753380  32.7535329  41.7036768
  23.0274345  29.0023172  39.6546913  23.6631582  29.0619109  38.5930511
  22.8246988  27.8717287  40.3666602  22.2852789  27.9758330  41.2141792
  23.0826115  26.5196570  39.9430025  22.6175922  26.3863196  38.9662333
  24.6379591  26.4066035  39.9996824  25.1124436  27.2466338  39.4924212
  24.9347085  26.5706724  41.0355981  25.2416997  25.0695758  39.4583753
  24.7321366  24.6541966  38.5889468  26.2647863  25.2786754  39.1458513
  25.4460723  24.0467987  40.5637858  25.4144121  24.3576699  41.7793081
  25.5360422  22.7634105  40.3843937  25.6699218  22.1719163  41.1920514
  25.4779020  22.3748554  39.4539394  22.3452488  25.6039003  40.9668756
  21.9336855  26.0649754  42.0450133  22.1552963  24.3092257  40.6073741
  22.7572833  24.0307181  39.8457015  21.4278534  23.3338379  41.3777760
  21.3935693  23.6370268  42.4242032  19.9578193  23.2801284  40.8121401
  19.4683348  24.2475569  40.9243316  19.9120650  22.8891495  39.7957044
  19.0839464  22.2882074  41.5019717  19.3273784  21.2682617  41.2043952
  19.2865517  22.3858503  42.5685183  17.3028811  22.6053425  41.2447479
  17.3834098  22.4856872  39.4105522  17.7440083  23.3926321  38.9252450
  18.0794790  21.6880214  39.1510965  16.4231647  22.2527158  38.9503852
  22.2232199  21.9775285  41.4263471  22.9120238  21.5125380  40.5328086
  22.0437339  21.1426314  42.5114812  21.4898358  21.4814298  43.2851172
  22.5465077  19.7772618  42.7047399  22.8852615  19.3806365  41.7476432
  23.7395948  19.8051581  43.7084136  23.5583008  20.5518864  44.4814785
  23.8123379  18.7780786  44.0660729  25.0272151  20.2716913  42.9585371
  24.9149119  21.2755630  42.5489884  26.2513003  20.1477745  43.9388543
  27.0693051  20.7980510  43.6288428  26.1080856  20.5340508  44.9480033
  26.5357441  19.0965445  43.9847577  25.4619653  19.4360276  41.7773818
  25.4354979  18.4234258  42.1799201  24.9417624  19.6042626  40.8344135
  26.5300370  19.5547488  41.5950951  21.3746046  18.8108764  43.0062443
  20.3319261  19.1429809  43.6184432  21.4689572  17.5479682  42.5718028
  22.3829494  17.3801903  42.1761151  20.5302846  16.4546488  43.0637929
  19.9236071  16.8347930  43.8857048  19.6274537  16.0360036  41.9201409
  20.3347677  15.5349569  41.2592583  19.0149389  15.1709588  42.1743518
  18.8186782  17.1867541  41.2324686  19.3972965  18.0757893  40.9816304
  18.3234864  16.4898211  39.9926583  19.1031382  16.2003283  39.2880798
  17.7211142  15.6198285  40.2541178  17.7294769  17.1795825  39.3930902
  17.6110845  17.7143139  42.0747135  17.0707084  16.8530153  42.4674746
  18.0303920  18.3432571  42.8600235  16.9751818  18.3930353  41.5063271
  21.4521563  15.3471552  43.6800894  22.5648374  15.1933371  43.2061554
  20.8929231  14.4942987  44.5993508  19.9418268  14.5603907  44.9327390
  21.5311166  13.3548834  45.2096602  22.5562286  13.2087512  44.8692329
  21.6973960  13.5962984  46.7292176  22.0721167  14.5747562  47.0297249
  20.7059880  13.5798173  47.1819270  22.5617971  12.6612383  47.2956243
  21.9609486  12.0846719  47.7732772  20.7411458  12.0565647  45.0145782
  19.5115775  12.0698114  44.8950734  21.4747730  10.9596200  45.1550531
  22.4581127  11.0974639  45.3398289  20.9052376   9.5813737  45.1841039
  19.8630466   9.6431891  45.4973399  20.9087198   9.0014299  43.7244695
  21.9755127   8.9212208  43.5156167  20.5258511   7.9809089  43.7319784
  20.4292640   9.6713872  43.0107609  21.6099969   8.6540422  46.1438148
  22.8783416   8.7082769  46.2346965  20.9305317   7.8599623  46.9702337
  19.9259979   7.9408584  47.0370741  21.6216107   6.8853955  47.8733034
  22.4239865   7.3246443  48.4660543  20.6083968   6.2128159  48.8698556
  21.0710277   5.2608087  49.1301535  20.3579820   7.1311758  50.0816645
  20.2766489   8.1750915  49.7788137  19.5223289   6.7260031  50.6522955
  21.2582264   6.9936763  50.6806253  19.3627194   5.8807338  48.3105888
  19.4412815   4.9806856  47.9860183  22.2622586   5.7410482  47.0500905
  21.9198629   5.6899639  45.8995476  23.1918766   4.9606663  47.6318090
  23.6695782   4.9582789  49.0033449  23.0059281   4.3619082  49.6294537
  23.8299217   5.9686139  49.3796601  25.0804147   4.4628342  48.9804348
  25.3553087   3.8997163  49.8723044  25.7817818   5.2970064  48.9617780
  25.1616127   3.6462821  47.6968541  24.9593891   2.6305442  48.0366823
  26.1471447   3.8366294  47.2718899  24.0155226   4.0346652  46.8072067
  24.4810469   4.6335772  46.0244579  23.2469961   2.8665166  46.1784669
  23.7789766   2.0797022  45.4158193  21.9712882   2.6778599  46.4758821
  21.5368943   3.4357889  46.9827801  21.0872483   1.5678007  45.9973040
  21.7544236   0.7147504  45.8736823  20.1201080   1.2836247  47.2184799
  19.3264978   0.6020705  46.9122661  20.7338736   0.7736063  47.9609603
  19.6078774   2.4744955  48.0652484  19.4365274   3.5107093  47.4778662
  19.2305705   2.3457508  49.2547871  20.3371621   1.8358325  44.6377536
  20.0299306   0.8604024  43.9647971  20.0040424   3.0839965  44.3351111
  20.3948064   3.7651832  44.9702410  19.1241527   3.5832421  43.2575663
  18.3226761   2.8977614  42.9821388  18.6009371   4.9916319  43.5846021
  19.5305183   5.4990393  43.8425167  18.1930210   5.3995851  42.6597894
  17.5338716   5.0704298  44.7971703  18.0131003   4.6234641  45.6681820
  17.3365059   6.5504676  45.0890792  16.7987649   7.0051747  44.2571063
  16.7929454   6.7568650  46.0110565  18.2944231   7.0629079  45.1779929
  16.2227643   4.3372290  44.3730261  15.4862546   4.8044537  45.0267497
  16.0332543   4.5842516  43.3284362  16.3515232   3.2618431  44.4957726
  19.9595848   3.7175277  41.9945150  20.9283114   4.4697297  41.9790699
  19.5985312   3.0714054  40.8465009  18.7171791   2.5833247  40.9178855
  20.4661353   2.8776756  39.6164861  21.1301554   3.7415944  39.5878114
  21.1315469   1.5522069  39.6336725  20.3852503   0.7977412  39.8825169
  21.6468088   1.4074494  38.6841197  22.1000508   1.4234117  40.7502311
  22.9825925   2.4405325  41.1516524  23.2486225   3.2753495  40.6492494
  23.6372120   2.0198966  42.2489427  24.4711700   2.5419226  42.6943669
  23.0154595   0.9279811  42.7325668  23.3579956   0.4410455  43.5484485
  22.1461541   0.4931746  41.7541611  21.6006921  -0.4319085  41.8686128
  19.6863813   3.0041054  38.2792747  20.2636770   3.0442512  37.1862955
  18.3959274   2.9792229  38.3342006  17.9308850   2.8100260  39.2146596
  17.6294236   2.7992129  37.0749494  18.0332642   1.8917049  36.6261259
  16.1761115   2.3843561  37.3034710  16.2019593   1.2955437  37.3473574
  15.8461774   2.7533071  38.2746143  15.5596409   2.7650852  36.4891558
  17.5707838   3.9277220  36.0520756  17.2129116   3.7415657  34.8857181
  17.7306756   5.1927071  36.4197623  18.1351796   5.4934357  37.2949988
  17.3923588   6.3727937  35.5811989  17.6242158   6.0952329  34.5529454
  15.8955365   6.7672110  35.6644788  15.3676670   5.8232994  35.5285198
  15.4920594   7.4792410  37.0022737  16.0182137   8.4285013  37.1030902
  14.4109955   7.6182631  37.0108561  15.8602442   6.9566324  37.8851225
  15.3603025   7.5722147  34.4731823  15.2673136   8.6352824  34.6952925
  16.0325397   7.4406271  33.6253134  14.3300930   7.3069925  34.2356248
  18.3098038   7.5510165  35.9291703  18.9190967   7.5206839  37.0055438
  18.3714314   8.6307326  35.0843991  18.0138581   8.5097338  34.1475906
  18.9395708   9.9493609  35.3947862  19.7883901  10.0486294  36.0713649
  19.4127239  10.5609530  34.1172445  18.5209737  10.8026264  33.5389092
  19.9147903  11.5110652  34.2997718  20.4344738   9.8149639  33.3459184
  21.5494739   9.1690579  33.9610252  21.7025750   9.1972640  35.0297461
  22.5098338   8.5116715  33.1500598  23.3282494   8.0481630  33.6808665
  22.3966352   8.5909132  31.7658833  23.1829479   8.2696003  31.0988911
  21.2677685   9.1280859  31.1801339  21.1160756   9.0532308  30.1134615
  20.2486435   9.7246608  31.9964396  19.3218608  10.0984403  31.5868513
  17.7948387  10.8504781  35.9760866  16.8546702  11.2159746  35.3462743
  17.7824655  11.1339406  37.3047870  18.7149041  10.6344075  38.3548591
  19.5950732  11.2698716  38.4527764  19.0180381   9.6165490  38.1095555
  17.8647796  10.5369981  39.5842083  18.5504937  10.5611716  40.4311548
  17.1776391   9.7110059  39.4007015  17.0754587  11.8753008  39.4112323
  17.6898344  12.7323172  39.6872129  16.1917740  11.9284734  40.0471382
  16.7235707  11.9328410  37.9349415  15.7342382  11.5114404  37.7567765
  16.7519306  13.4411684  37.4945168  15.6830665  14.1484436  37.5254689
  17.9306757  13.9189112  36.9901157  18.6882653  13.2554507  37.0674344
  18.1225705  15.2276689  36.3803756  18.0098130  16.0085665  37.1324331
  19.5180540  15.3620103  35.7116911  20.2985449  15.2327143  36.4615065
  19.7405937  14.4966329  35.0874319  19.6813365  16.3195927  35.2172473
  17.0350188  15.4739027  35.3184040  16.5366246  16.6257276  35.1451579
  16.4865621  14.4430466  34.6737234  16.7262597  13.4961973  34.9308641
  15.2973373  14.5447788  33.7256950  15.5733773  15.2644322  32.9549735
  15.0351872  13.2216929  33.0643237  15.9507204  12.8341003  32.6174782
  14.6977144  12.5144811  33.8219934  13.9837632  13.3072518  31.9720817
  13.1505232  13.8109487  32.4620823  14.2340479  13.9686196  31.1425928
  13.5393057  12.0152381  31.3939172  14.3842619  11.5934023  30.8496708
  13.2971821  11.3461398  32.2196191  12.2293133  12.1625126  30.5087201
  11.5992302  11.3407762  30.8490796  11.5954423  13.0034983  30.7898839
  12.5763131  12.1921033  29.0541837  13.1725451  11.3800451  28.9822886
  11.7723315  12.0408979  28.4618537  13.0531315  13.0343030  28.7653164
  14.0951030  15.1496569  34.4367799  13.3696339  15.9125142  33.7714402
  13.7997188  14.9591889  35.6844548  14.3897757  14.3511781  36.2342333
  12.7170145  15.5477481  36.4886682  11.8514757  15.3737587  35.8493917
  12.4789169  14.6927368  37.7281779  13.2663155  14.7022462  38.4818415
  11.5840517  15.0047770  38.2666457  12.2446182  13.6742031  37.4186729
  12.7257767  17.1510721  36.6041786  11.7083195  17.7975609  36.8028058
  13.8647431  17.7509041  36.2511545  14.6782139  17.1580554  36.1681150
  13.9677565  19.2458670  36.0622725  13.3228681  19.7401569  36.7888384
  15.4593886  19.5465448  36.3069076  15.9653480  19.0085512  35.5052350
  15.6346318  21.0957984  36.2017851  15.4997153  21.5315027  35.2118053
  14.9012363  21.5007250  36.8991125  16.6811713  21.3136909  36.4148223
  15.9307872  19.2175458  37.7092628  15.2544674  19.6275458  38.4593234
  16.0169591  18.1323694  37.7646401  16.9292687  19.6215203  37.8764053
  13.5194427  19.6745958  34.6466128  13.2666577  20.8306172  34.3469453
  13.4549933  18.7150538  33.6787982  13.6699361  17.7553205  33.9086056
  13.0185588  18.9493746  32.2779058  13.1971331  20.0054882  32.0758105
  13.8944671  18.0330754  31.3424837  13.6126611  16.9924220  31.5028764
  13.6282091  18.2684944  30.3120513  15.4224366  18.3093578  31.5369934
  15.7041557  19.3587698  31.4505663  15.6495078  17.9306227  32.5335366
  16.2101732  17.5388728  30.3886797  15.8320877  16.5190960  30.3165230
  15.9240651  17.9180198  29.4076141  17.6484817  17.6699360  30.5237004
  17.9825170  18.1832545  31.3268373  18.5800126  16.9873562  29.9181408
  18.4509957  15.9556691  29.1413788  17.6391211  15.5597156  28.6895153
  19.3190139  15.5944916  28.7723254  19.7705578  17.4444476  30.1297235
  20.5718967  16.9980404  29.7070163  19.9746472  18.2987464  30.6283427
  11.5423507  18.6753868  32.1682571  10.8715623  19.1617314  31.2235491
  11.0185179  17.9117752  33.1530561  11.6028010  17.4572600  33.8401768
   9.5932342  17.7507584  33.2992187   9.1295479  17.5507951  32.3332424
   9.3258076  16.4789536  34.1012913   9.8079372  16.7299565  35.0460922
   8.2651471  16.3933669  34.3374566   9.9034839  15.1252002  33.6360791
  10.9276167  15.1428822  33.2633308   9.8123012  14.4248521  34.4663190
   9.0309021  14.7755937  32.3913762   8.0671125  14.0078057  32.5851017
   9.2562219  15.2622087  31.2858330   8.7390888  19.0282320  33.8655171
   7.5190099  18.9911737  33.9597443   9.5352926  20.0360011  34.2776323
  10.5365109  20.0344431  34.1447433   8.9237132  21.3468261  34.6978146
   7.8417424  21.2567665  34.7944193   9.5149701  21.6784347  36.1249518
  10.5864785  21.7230452  35.9300603   9.2271690  22.6003860  36.6302006
   9.2536029  20.5751736  37.2159561   9.4296204  19.6323957  36.6979911
   9.9677483  20.8682663  38.5242124   9.7525164  21.8927843  38.8277423
   9.7145588  20.1565603  39.3100050  11.0348778  20.7886822  38.3168457
   7.8077011  20.4732417  37.5697990   7.2634846  19.7316530  36.9850146
   7.7103502  20.1653145  38.6108579   7.3073922  21.4395531  37.5062929
   9.3325960  22.3955808  33.6720003  10.3786301  22.2849965  33.1399672
   8.5194619  23.4808670  33.5763902   7.7331340  23.5031027  34.2098680
   8.6008524  24.4352267  32.4919146   8.9523465  23.9213393  31.5972238
   7.3311557  25.1976941  32.2619598   6.5147660  24.4829296  32.1584294
   7.0293106  25.8196392  33.1046780   7.4471213  25.9628773  31.0531424
   7.1073642  25.3500511  30.3969320   9.6662892  25.4815460  32.7511568
   9.6200590  26.1249822  33.8272626  10.7009863  25.5930360  31.8874221
  10.7332628  25.0491220  31.0370011  11.7722542  26.6182723  31.9141374
  12.3318487  26.5791960  30.9795642  11.3452117  27.5861912  32.1765688
  12.8616353  26.3904033  33.0075619  14.0090846  26.5952541  32.7657321
  12.5250258  25.7143922  34.1057827  11.5477430  25.4989434  34.2421648
  13.4254421  24.9739042  35.0826329  13.9743700  25.6714598  35.7152422
  12.4943381  24.1204496  36.0381951  11.6135087  23.9008207  35.4348661
  12.9596232  23.2192970  36.4376119  12.0094143  24.9908191  37.2238593
  10.8405066  25.6885163  37.2955594  10.0907812  25.8046172  36.5269032
  10.7542325  26.3031744  38.4999610   9.9483335  26.8134888  38.8319339
  11.9178328  26.1910203  39.2369551  12.3324326  26.6317632  40.4847364
  11.7840617  27.4044609  41.0030395  13.5916082  26.3140134  40.9651475
  13.9216840  26.9407958  41.7803744  14.3278668  25.3838740  40.2926626
  15.2607908  25.0141703  40.6918795  14.0004829  24.9747191  38.9675856
  14.6634863  24.3138148  38.4290387  12.7122418  25.3450378  38.4634425
  14.3594913  24.0859611  34.3354516  15.5102942  23.9441438  34.7808484
  13.9437686  23.5719284  33.1809735  12.9468393  23.6319052  33.0305230
  14.7886132  22.8387836  32.2242054  15.1713278  21.9770201  32.7710082
  13.8813849  22.4312130  31.0746995  14.2582641  21.4914979  30.6709694
  12.9043041  22.1640978  31.4772695  13.6386900  23.3599551  29.9068715
  13.0012021  24.1995827  30.1838818  14.5875537  23.8230656  29.6361571
  13.0885558  22.7036029  28.7083875  12.5022162  21.6099651  28.6627272
  13.0707274  23.4551940  27.5906131  13.4230138  24.4003926  27.6415425
  12.8150147  23.1078368  26.6773439  16.0867483  23.4812640  31.8280919
  17.0483517  22.7370365  31.5585837  16.1665773  24.7975068  31.8575372
  15.3346781  25.3150250  32.1029321  17.4280489  25.5345629  31.7249113
  18.1244293  25.0503217  31.0403203  17.1291511  26.8935549  31.0134819
  16.6863547  27.5185476  31.7889916  18.0983159  27.2911781  30.7122886
  16.2711589  26.7938064  29.7775809  16.8449602  26.1619583  28.6405342
  17.8616762  25.8075329  28.7246239  16.1142115  25.9348523  27.4550673
  16.5321925  25.5231275  26.5483288  14.7293229  26.2630365  27.4701003
  13.9772953  25.9530079  26.4047058  13.3913110  26.7051193  26.2926755
  14.0974790  26.8022500  28.6530060  13.0193361  26.8542923  28.6890740
  14.9117601  27.1470061  29.7452960  14.4565539  27.4929174  30.6615598
  18.3284896  25.7833294  32.9204954  19.4181488  26.3362754  32.7049065
  17.9778899  25.4339676  34.1529271  17.0539411  25.0873198  34.3680004
  18.8719863  25.4291817  35.2982413  19.3628141  26.3985247  35.3852162
  18.1222293  25.2734170  36.6118804  17.7357922  24.2594692  36.7152066
  19.0796392  25.5185875  37.7700662  18.4343113  25.4803275  38.6476752
  19.8009871  24.7039818  37.8346890  19.6651389  26.4317123  37.6628601
  17.0283395  26.3797527  36.7138079  16.3887985  26.2504860  35.8406656
  16.4160803  26.1854601  37.5944277  17.5672994  27.3185993  36.8410467
  19.9575026  24.3422647  35.1089913  19.5945920  23.2097410  34.9659708
  21.2578255  24.5980935  35.1086793  21.7543745  25.9270445  35.3970389
  21.3021265  26.3547152  36.2918403  21.6246782  26.6285217  34.5728959
  23.2379341  25.7425276  35.4830631  23.5451983  25.5638650  36.5134846
  23.7842361  26.5876470  35.0642231  23.5043834  24.4964878  34.6622018
  24.4835586  24.0331906  34.7833291  23.5601839  24.7510550  33.6038154
  22.3243253  23.5985628  34.9841650  22.1761216  22.9305663  34.1356862
  22.5177051  22.7715584  36.2441952  22.6582488  23.4375563  37.3366394
  22.4436190  21.4210753  36.0737482  22.2774230  20.9858735  35.1776018
  22.3222450  20.4357054  37.1932478  22.7536092  20.9251125  38.0664634
  20.8102201  20.1714847  37.5311870  20.3979015  21.1538582  37.7614828
  19.9330918  19.6309282  36.4238718  18.8838653  19.4725712  36.6731564
  19.9184252  20.2298448  35.5132760  20.4050416  18.7058680  36.0927721
  20.6416101  19.2340985  38.7339695  20.9022865  18.1918155  38.5501331
  21.2172767  19.5078781  39.6181372  19.6015952  19.3785827  39.0265482
  23.0988400  19.1588024  37.0001672  23.3035383  18.6510472  35.8755317
  23.5907667  18.5669433  38.1257051  23.5696874  18.9681643  39.0523536
  24.0846542  17.1541461  38.0778888  23.5475361  16.6507797  37.2740067
  25.5251083  17.1749800  37.5273611  25.4946418  17.7515491  36.6028397
  26.5802707  17.6902244  38.4553876  27.4963687  17.5463786  37.8825139
  26.5026330  18.7499000  38.6986185  26.6068730  17.1054859  39.3748838
  26.0351487  15.9785942  37.1572142  26.9530607  16.0871089  36.8978645
  23.9081748  16.3725923  39.3821350  23.8747698  17.0752416  40.3997959
  23.8758134  15.0645118  39.2357362  24.1152047  14.7029689  38.3235529
  23.6282188  14.1906518  40.3582659  22.9444016  14.6922298  41.0430386
  22.9331955  12.9096257  39.8577261  22.1087479  13.0655717  39.1619768
  23.6923475  12.2938339  39.3754506  22.2692226  12.0431047  41.3089923
  23.3049625  11.2346832  41.5510570  24.9335613  13.7180098  41.0094083
  25.7771740  13.3203907  40.3060033  24.9225130  13.6040678  42.3167028
  24.1216126  14.0361772  42.7548125  26.0596648  13.0632564  43.2028088
  26.7767688  12.6135134  42.5160820  26.8229307  14.1406349  43.9848513
  27.7130144  13.7895589  44.5069594  27.2241182  14.8571716  43.2681060
  25.9627631  14.9013038  45.0251716  24.9172804  14.6203899  44.8980763
  26.1941271  14.4946538  46.0096549  26.0124637  16.7291316  44.9563387
  27.5811686  16.9778757  45.7441916  27.4535543  17.7948620  46.4543723
  27.8534544  16.0997487  46.3297307  28.3530060  17.2430276  45.0216533
  25.5949737  11.8352526  44.1169725  24.4114003  11.7853405  44.3959125
  26.4918128  10.9455506  44.4446972  27.4478811  11.0667990  44.1424848
  26.0934864   9.8581190  45.3853541  25.0802655   9.4964363  45.2102285
  27.0010959   8.6890914  44.9813111  26.9203801   8.6716661  43.8944430
  28.0043218   9.0318547  45.2345920  26.6202268   7.3082473  45.5933803
  25.9360972   7.4812435  46.4241271  26.2417322   6.6290365  44.8294991
  27.6961681   6.4262274  46.2036257  28.4279963   5.8943252  45.4379214
  27.7367913   6.2034678  47.4655525  28.4529674   5.6556039  47.9205681
  27.0632480   6.7006842  48.0305440  26.1503222  10.3904044  46.8922026
  27.1237440  10.9908695  47.2853830  25.0145512  10.1208519  47.5592376
  24.2226188   9.7480697  47.0552769  24.9491072  10.1821817  48.9988038
  25.3151815  11.1667622  49.2898205  23.5280494  10.0104881  49.5578093
  22.9522379  10.9262965  49.4242566  23.1296779   9.2524538  48.8834324
  23.3474457   9.6195892  51.0525540  23.6995340   8.5982860  51.1977219
  23.9167473  10.3548203  51.6212657  21.8430678   9.7254359  51.5322026
  21.0251009  10.5528903  51.0192837  21.4727445   9.0575229  52.4973503
  25.7646152   9.0586252  49.5496570  25.8742483   7.9724646  49.0213521
  26.4555744   9.3607459  50.6353576  26.3531777  10.2986561  50.9958290
  27.3959525   8.4943039  51.3020674  27.9542061   7.9601681  50.5331984
  28.4017153   9.2980972  52.1335174  29.1886766   8.7087873  52.6041625
  29.0249643   9.8639063  51.4410430  27.8194874  10.1945292  53.2256906
  27.3396778  11.0372434  52.7279803  27.3054408   9.5318767  53.9219293
  28.9778870  11.1072916  54.3037431  29.3831096   9.7800028  55.4669852
  30.3050584   9.9768476  56.0141312  28.6235684   9.4506570  56.1760190
  29.6700722   8.8822124  54.9195138  26.7439661   7.4336959  52.2501914
  25.6849021   7.7299497  52.8162855  27.1570738   6.2035564  52.2940748
  28.0796356   5.9101983  52.0061149  26.4288432   5.1497739  53.0974254
  25.3528568   5.1976125  52.9299004  26.9275644   3.7640759  52.6586924
  26.9767517   3.7419743  51.5700268  27.9674136   3.7186448  52.9823428
  26.1722135   2.5498959  53.1966696  24.9992082   2.6969217  53.5015346
  26.8066604   1.4975005  53.3892132  26.6918476   5.3615469  54.5467445
  27.8050789   5.6329987  54.9862263  25.6163848   5.2846024  55.3555899
  24.8025878   4.7775439  55.0382162  25.6788893   5.5528947  56.8048658
  26.6545796   5.3636903  57.2524497  25.2121534   7.0167005  57.1612389
  24.2296431   7.1921927  56.7230883  25.1136230   7.3909781  58.6500250
  24.9100128   8.4569246  58.7520214  24.2881008   6.8915245  59.1571337
  26.0200537   7.2897582  59.2468880  26.2324191   7.9956660  56.4622495
  26.2405991   7.9394309  55.3737309  25.8943906   9.0074521  56.6861367
  27.2585514   7.8484368  56.7991077  24.7687682   4.5986273  57.5035208
  23.6889144   4.2302882  56.9261187  25.0218148   4.2742538  58.7736940
  25.7431862   4.8179548  59.2254822  24.2632664   3.3734223  59.5724696
  23.9836356   2.4813953  59.0119391  25.0941727   2.8055285  60.7466580
  24.4413400   2.1291725  61.2984298  26.2462654   2.0240075  60.1989239
  26.6320454   1.2866626  60.9029022  25.8518162   1.4468248  59.3626395
  27.0195936   2.7181022  59.8698401  25.6101205   3.7701604  61.6022874
  26.5270444   3.8569500  61.3315140  22.8624337   3.8376531  60.0000087
  22.6995389   5.0590308  60.2741016  21.8784478   2.9479220  59.9410410
  22.0856619   2.0085579  59.6332142  20.5419767   3.3671263  60.1597833
  19.8171754   2.5550348  60.2169731  20.4834550   3.6997025  61.1961596
  20.0221371   4.4676438  59.1910778  18.7920612   4.6458860  59.2280326
  20.7556145   5.1984946  58.3741158  21.7305386   4.9527655  58.2779831
  20.1553938   6.2234796  57.5140632  19.6577652   6.8503655  58.2539820
  20.8698904   6.8306794  56.9582710  19.1862913   5.6275019  56.5143859
  19.2473408   4.4376596  56.1113546  18.2571182   6.5148748  56.0896777
  18.2207643   7.4413352  56.4902391  17.1991640   6.1348002  55.1587477
  16.7357709   5.2069068  55.4939826  16.0871261   7.2582756  54.8512739
  16.6356527   8.1689280  54.6105813  15.5048048   7.0010237  53.9665008
  15.1510082   7.7064878  55.9337209  15.6696577   7.5639136  56.8817584
  14.8854749   9.2215243  55.7952304  14.4942861   9.4956607  54.8154691
  14.1985694   9.5691637  56.5668583  15.8327878   9.7154156  56.0114930
  13.8354403   7.0251868  56.0284901  13.9628061   5.9427003  56.0188133
  13.4228084   7.3627887  56.9792058  13.1233238   7.3600579  55.2742677
  17.7599465   5.6631049  53.7523675  18.5175283   6.3759591  53.1078455
  17.3959873   4.4250201  53.4377167  16.6813269   4.0100650  54.0183825
  17.5941535   3.7964746  52.1828273  18.6469775   3.7314025  51.9081802
  17.1134604   2.3554501  52.4088721  16.0401310   2.3720266  52.5980529
  17.3403515   1.7621412  51.5230897  17.7669039   1.5795940  53.5796483
  17.4712421   2.1282980  54.4738569  17.3334829   0.5795009  53.5873896
  19.2565328   1.4707683  53.5612097  19.5957299   1.2458481  52.5500433
  19.6865376   2.4208110  53.8784080  19.6202678   0.3304092  54.5190472
  19.2005030   0.4753942  55.5144774  19.3323962  -0.6814216  54.2336907
  21.0871192   0.3407554  54.6331742  21.3993485   1.2478625  54.9490375
  21.4079376  -0.3025773  55.3426152  21.6225063   0.2295632  53.7839998
  16.7869427   4.4011787  51.1006671  15.7622807   4.9802352  51.4019539
  17.0646720   4.2421535  49.8324071  17.9175228   3.7687099  49.5704975
  16.1769615   4.6957419  48.7283740  16.7169299   4.6411174  47.7830961
  14.9796962   3.6739631  48.6489932  14.3542247   3.5440034  49.5321673
  14.3486457   4.0912848  47.8643163  15.5728549   2.2681840  48.2596585
  16.2498054   2.3149538  47.4066327  16.0804455   1.8808097  49.1430570
  14.4280955   1.3652150  47.7783680  14.0308883   1.8697595  46.8975930
  14.9072474   0.4193238  47.5257750  13.3779101   1.1929525  48.8406101
  13.9031484   1.3292326  49.7859420  12.7140480   2.0363958  48.6508774
  12.5609001  -0.0825636  48.7236004  13.1146163  -0.9253307  48.6666629
  11.8914253  -0.0913902  49.4797926  11.9262767  -0.0746892  47.9379214
  15.7011181   6.2092907  48.7798536  14.4928495   6.5297957  48.6472862
  16.6439758   7.0927776  48.8710453  17.6008868   6.7790203  48.9483611
  16.4064536   8.5119938  49.0612392  15.3506488   8.7470541  48.9265991
  16.8300335   8.7987444  50.4644563  16.4604529   8.0162630  51.1272039
  17.9109569   8.8534273  50.5937408  16.1503716  10.4328841  51.0209806
  14.9050940   9.9707792  51.1646543  17.1756612   9.4512352  48.0333141
  18.2989095   9.2605576  47.6333963  16.4585796  10.5419501  47.8089199
  15.5594257  10.6796844  48.2478406  16.7312935  11.5391251  46.7929576
  17.7214776  11.3583211  46.3746930  15.7409859  11.4927577  45.6146395
  14.7006639  11.6109833  45.9177124  16.0566473  12.5984862  44.6259401
  17.1087175  12.5803086  44.3414714  15.3747443  12.4349209  43.7914611
  15.8558319  13.6215879  44.9438017  15.8107663  10.1347540  44.9445967
  16.1743985  10.1994240  43.9190776  16.4181682   9.4519101  45.5386452
  14.4064717   9.5037120  45.0769087  14.3168366   8.5986574  44.4761175
  14.2107688   9.1791607  46.0989011  13.6827558  10.2297302  44.7064595
  16.7658424  12.9012433  47.4343539  15.7038910  13.4667637  47.8024050
  17.8454786  13.6994755  47.3481401  18.6593173  13.2650557  46.9369881
  17.9925922  15.0919706  47.7923248  17.0306445  15.4508894  48.1582946
  18.9247153  15.1497074  49.0445527  19.9354747  15.2043864  48.6402314
  18.7684878  16.1098108  49.5363863  18.7946150  14.0152387  50.0342814
  17.7845001  13.9279681  50.4344721  19.1939143  13.1229380  49.5521409
  19.6847728  14.1647767  51.2866503  20.6031814  14.5889805  50.8808436
  19.3576009  14.9652455  51.9502075  19.9933580  12.9422444  51.9770103
  20.1127333  12.1251759  51.3954189  20.0176426  12.7599583  53.3251822
  19.9753943  13.7653349  54.1255261  20.0427784  13.5590240  55.1119316
  20.2420943  14.6782227  53.7855158  20.0387270  11.5042022  53.7319070
  19.9747652  11.3653667  54.7302724  20.1789875  10.7863954  53.0353574
  18.2784058  16.0994424  46.7010909  18.5316471  15.7615036  45.5989346
  18.1255808  17.3642577  47.0450205  17.7123104  17.6450442  47.9227846
  18.4026511  18.5426624  46.2261049  19.1534433  18.3855315  45.4516811
  17.0927142  19.0598702  45.5166304  16.6907359  18.3855702  44.7604340
  15.9354464  19.3890613  46.4407304  15.6071540  18.5265405  47.0207130
  16.1288237  20.2805746  47.0373118  15.0719283  19.6209735  45.8173097
  17.4075321  20.3596631  44.6244885  16.6376906  20.4494578  43.8580818
  17.5243533  21.2934295  45.1745186  18.3109302  20.3750214  44.0147827
  19.0136691  19.6326500  47.1380562  18.5199922  19.8796652  48.2461299
  19.9674193  20.3668183  46.5737272  20.4940410  19.9867112  45.8002363
  20.2331659  21.7062268  47.0057200  19.4560988  22.0065513  47.7086229
  21.4828598  21.6877368  47.9521509  21.3447791  20.8851241  48.6766144
  22.3578294  21.4878101  47.3336386  21.5767490  23.0947341  48.5589490
  22.0379974  23.7501072  47.8201417  20.6564700  23.6771183  48.6038461
  22.4345114  23.3804450  50.1530038  24.2236762  23.0146289  49.8542096
  24.5543812  23.4885706  48.9300264  24.9171488  23.3108766  50.6412503
  24.4610245  21.9738371  49.6339308  20.2901432  22.5614189  45.7801261
  20.9261431  22.2082477  44.8192040  19.7045892  23.7318402  45.9325710
  19.0176001  23.9828507  46.6290907  19.9152706  24.7668700  44.8775406
  20.6771649  24.4656423  44.1585920  18.6168594  24.9108974  44.0216948
  18.9329958  25.1591045  43.0085090  18.2697180  23.8997299  43.8092487
  17.4915755  25.7766576  44.4844454  17.1716004  25.4398285  45.4704788
  17.8890762  26.7843260  44.6056940  16.0458165  25.8584337  43.4767311
  15.1346835  24.2921565  43.7774125  15.1664617  23.9665237  44.8171524
  14.1070115  24.4516190  43.4509734  15.6208050  23.4274335  43.3257047
  20.4365854  26.0535961  45.4888963  19.8434482  26.4661237  46.4870088
  21.4888825  26.7202991  44.8903869  22.0002580  26.3497588  44.1021643
  21.8216843  28.0810178  45.3297953  21.7090692  28.1546209  46.4114609
  23.3042600  28.3627665  44.9486730  23.4420842  28.3314457  43.8678750
  23.8546037  29.6261471  45.5622012  23.8604548  30.4053668  44.8000424
  23.2160634  29.9363325  46.3893358  24.9189724  29.5863667  45.7937974
  24.1083429  27.3147220  45.4239936  23.7921734  27.2744184  46.3295393
  20.9374814  29.0511300  44.5634757  20.5721563  28.8605543  43.3559639
  20.6433508  30.2296087  45.1135390  20.8589849  30.4630188  46.0722474
  19.6764606  31.2570566  44.5810032  19.6650841  31.2958690  43.4917539
  18.2802082  30.8366756  44.9836966  18.0765513  29.7961695  44.7307716
  17.9458516  30.9095975  46.5242520  18.0178658  31.9362688  46.8832375
  16.9202646  30.5440655  46.5758179  18.6779899  30.2833763  47.0340760
  17.2932159  31.7429780  44.2237064  17.4216772  32.7842446  44.5192762
  17.4370552  31.6414514  43.1480195  16.2696585  31.3738403  44.2882642
  20.0847784  32.6351450  45.0941168  20.4182116  32.8473916  46.2914751
  19.8116615  33.6520615  44.2694657  19.5036646  33.4505832  43.3289103
  19.9209882  35.0377794  44.7272478  20.6943037  35.0308632  45.4953853
  20.2737889  35.8088434  43.4578334  20.7549456  36.7278964  43.7924020
  20.9862495  35.3468484  42.7744150  19.2486384  35.9873101  42.3844208
  19.1259086  35.0172202  41.9027955  18.3252910  36.3394654  42.8443352
  19.6551285  36.8946593  41.1804436  20.7259658  37.4727003  41.2430518
  18.9274423  36.9534212  40.0397652  19.2226576  37.5472689  39.2779921
  18.0366147  36.4850184  39.9553551  18.6658053  35.4374408  45.4047802
  17.5671934  35.3544821  44.8224875  18.7920157  35.9199812  46.6290091
  19.6900787  35.9584663  47.0895608  17.7113030  36.5406562  47.4353682
  16.9725053  37.0360822  46.8054230  16.8953065  35.4232758  48.1396203
  16.4655942  34.7568991  47.3916969  17.5384271  34.5944348  49.1553823
  17.6859973  35.0645757  50.1276387  16.9504417  33.6867524  49.2913455
  18.4849512  34.3908458  48.6546392  15.8514602  36.1478379  48.7625972
  15.4087750  36.6685707  48.0884554  18.2271312  37.4561984  48.4926753
  19.2848575  37.1927181  49.0407004  17.5480889  38.5302268  48.8932765
  16.7158230  38.7908353  48.3838454  17.8242405  39.3907675  50.0490614
  18.8964437  39.3312864  50.2360110  17.3680213  40.8455703  49.8947768
  16.2971592  40.8630781  49.6921741  17.4469090  41.3389290  50.8635270
  18.2389039  41.5921555  48.8644497  17.8307172  42.4129855  48.0443136
  19.4569451  41.4447209  49.0152978  17.2208069  38.7764727  51.3639292
  17.5842173  39.1880290  52.4304644  16.3353160  37.7776570  51.2192538
  16.2243834  37.3375565  50.3169759  15.5482284  37.1964782  52.2934826
  14.9596533  37.9647123  52.7949762  14.5982369  36.1151928  51.6963020
  15.1269106  35.3792577  51.0904937  13.8184003  35.3613676  52.8225697
  13.1969812  36.1182698  53.3011592  13.1533823  34.6420788  52.3445783
  14.3908713  34.9136577  53.6349321  13.5227685  36.8182405  50.7686507
  13.8667909  37.4617162  49.9589122  12.8477570  36.0356412  50.4222424
  12.8993296  37.4852913  51.3640222  16.5001079  36.5925933  53.2656486
  17.5121639  36.1299102  52.8997776  16.1706253  36.7581141  54.6158386
  15.0630454  37.4943797  55.2366226  14.0909482  37.2573449  54.8042552
  15.0466108  38.5825343  55.1753841  15.1172288  37.2291181  56.7101598
  14.4795996  36.3721378  56.9272198  14.8453803  38.1431141  57.2381842
  16.5471569  36.7717141  56.9766824  16.7630180  36.2045011  57.8820965
  16.9883815  37.7672529  56.9284825  17.0089955  36.1143914  55.6634641
  18.0452344  36.3620166  55.4332669  16.9162847  34.5451349  55.8320034
  15.8340297  34.0390611  55.5472391  18.0929542  33.9799188  56.1410420
  18.9059524  34.5152728  56.4103560  18.2883606  32.5007779  56.2094040
  18.1309383  32.0949980  55.2100713  19.6362375  32.2133915  56.7912133
  19.6060067  32.6827692  57.7745097  19.6883395  31.1376994  56.9593554
  20.8711306  32.7336801  56.0881198  20.9180959  32.2555586  55.1097058
  20.8671191  33.7897085  55.8181350  22.1541084  32.4601476  56.8884716
  22.2092292  32.6794357  58.0874576  23.1606323  32.0129420  56.1715537
  24.0855027  32.1474122  56.5544923  22.9835928  31.7800701  55.2048440
  17.3087077  31.5922749  56.9692731  17.0608028  30.4206882  56.5584706
  16.6571189  32.1614688  57.9977791  17.0073304  33.0530971  58.3178585
  15.7868906  31.4233690  58.8788660  15.9258540  30.3440197  58.8172647
  15.7943689  31.9202647  60.3131966  15.1366426  31.3095346  60.9316664
  16.8494157  31.7899769  60.5540304  15.5390054  33.4118355  60.5759495
  15.7219392  34.2406037  59.7038184  15.0902610  33.7687750  61.7006332
  14.2982193  31.5821468  58.4034934  13.5088161  30.6714482  58.5301638
  13.9981930  32.6483979  57.6493550  14.6715137  33.4011583  57.6398211
  12.7214153  32.8632692  56.9235953  11.8409306  32.6552237  57.5315129
  12.5514480  34.3114896  56.4935461  12.6775731  34.9255604  57.3852352
  13.3904025  34.5102964  55.8266602  11.2031123  34.6671611  55.8182233
  10.9167247  33.9545039  55.0447882  10.3896685  34.6064808  56.5412260
  11.2112512  36.2055597  55.3909199  11.8570434  37.0587924  56.0856744
  10.5166618  36.6630877  54.3722847   9.9965101  36.0652601  53.7460695
  10.4025501  37.6637278  54.2961394  12.5223336  31.7784796  55.8080991
  11.4862110  31.1162268  55.6806943  13.6607077  31.4821601  55.0820501
  14.5055164  32.0149017  55.2323320  13.8693614  30.4290165  54.0397751
  13.2047736  30.5974661  53.1923910  15.3137842  30.6692914  53.4146079
  16.0699997  30.7916284  54.1900292  15.7771448  29.4306552  52.5274894
  15.8905505  28.5534557  53.1644824  14.9467493  29.1848203  51.8655873
  16.6745318  29.6567222  51.9515633  15.1840972  31.8589156  52.4211991
  14.8162180  31.6649635  51.4136538  14.4745300  32.5979769  52.7932255
  16.5628536  32.5463206  52.2950482  17.2281286  32.1139199  51.5476937
  16.4255292  33.5848003  51.9937292  17.0642901  32.4110570  53.2533607
  13.5633924  29.0096657  54.5625957  14.0920260  28.6058574  55.5680138
  12.7485073  28.2710014  53.7980205  12.3276978  28.6615795  52.9670764
  12.0610834  26.9831184  54.1287659  12.3337528  26.7849430  55.1653369
  10.5549533  27.1367938  54.0317390  10.4054255  27.5059815  53.0171244
  10.1355048  26.1771053  54.3336677   9.8388976  28.2042949  54.8341298
  10.2363963  29.2011247  54.6432765   8.7987605  28.2165373  54.5084438
   9.8779449  28.0130362  56.3470221  10.8903318  28.0178796  56.7509401
   9.3857021  28.8755592  56.7963008   9.2348879  26.6970355  56.7447784
   8.4720776  26.3500327  56.1810324   9.5338395  25.9616171  57.8519308
  10.5109277  26.1059234  58.6650203  10.5365888  25.5201370  59.4873927
  11.0484282  26.9590563  58.6070762   8.8676414  24.8667480  57.9906836
   9.0460808  24.3140773  58.8170102   8.1693874  24.6177920  57.3047082
  12.6844007  25.8829561  53.2329913  12.3989797  25.7474937  52.0540298
  13.4656784  24.9900344  53.8182013  13.9655070  25.2626257  54.6524492
  13.8339645  23.6953068  53.2918241  14.0634725  23.7906951  52.2305375
  15.1487512  23.2957164  54.0300511  14.9659927  23.0312009  55.0715552
  15.6372507  22.4522438  53.5421728  16.2043540  24.3737653  53.9956501
  16.8433306  24.9502946  52.9123974  17.6126402  25.9789494  53.4497002
  18.2873838  26.6141203  52.8950118  17.4228811  26.1055926  54.7479644
  17.6838835  26.9174988  55.2890615  16.4335486  25.2196709  55.1002306
  16.1027895  25.0147334  56.1077022  12.7508548  22.5932203  53.5561020
  12.4417912  22.4475327  54.7393224  12.2634303  21.8953014  52.5495980
  12.7951550  22.0036038  51.6977533  11.0321501  21.0634293  52.5699837
  10.6056014  21.2277348  53.5595088  10.0623373  21.6206356  51.5852452
  10.6426383  21.7549149  50.6723817   8.8626639  20.7505789  51.3038012
   8.2047383  21.2886178  50.6213439   9.2171000  19.8105151  50.8810112
   8.2761949  20.4039986  52.1547051   9.5378627  23.0115219  51.9935856
  10.3248843  23.7254524  52.2364852   8.8856946  23.4351171  51.2298139
   8.8868488  22.9016389  52.8608843  11.2926486  19.6048334  52.3429042
  11.9453093  19.2297239  51.4103800  10.6855502  18.8037392  53.1755808
  10.3387073  19.2558652  54.0094765  11.0250677  17.4028404  53.2483634
  11.6719797  17.1265326  52.4157417  11.8296810  17.0341967  54.5175366
  11.2552161  17.4579933  55.3412395  11.9160106  15.9726263  54.7493103
  13.2288616  17.6166128  54.4539972  13.3227028  18.9827681  54.7148144
  12.4295502  19.4909220  55.0471665  14.6079131  19.4992596  54.7010764
  14.6629812  20.5778384  54.7070325  15.7774956  18.7122124  54.5163271
  17.0289778  19.3091699  54.6525816  16.9350179  20.1317242  55.1385617
  15.6285171  17.3788660  54.2829925  16.5003088  16.7415019  54.2709085
  14.3569381  16.8118852  54.2262562  14.3493485  15.7319145  54.2238519
   9.7341912  16.6085996  53.1301171   8.7048489  16.8537605  53.7216690
   9.8489062  15.5507991  52.3097989  10.7784181  15.5556543  51.9147239
   8.7422286  14.6691726  51.8937336   7.7780521  14.9471291  52.3194140
   8.5915610  14.8380014  50.4224770   9.5667172  14.6316366  49.9813595
   7.9134110  14.1149088  49.9693215   8.2011872  16.2595846  50.0260693
   8.9884572  16.9457010  50.3383997   8.1518131  16.4364779  48.5289770
   7.9832515  17.4845538  48.2815368   9.0422185  16.0302999  48.0490837
   7.3488259  15.7844327  48.1852327   6.9709398  16.7960936  50.6280451
   6.7214520  17.7320906  50.1282829   6.1743551  16.0700469  50.4655370
   7.0436626  16.8893755  51.7116058   8.9128656  13.1593072  52.1094131
   9.9939721  12.6374876  52.3750962   7.8021602  12.4302193  52.0168143
   6.9366767  12.9467875  51.9520411   7.7128689  10.9518852  52.0240932
   6.6320113  10.8206369  52.0752879   8.2109847  10.2309395  50.7227407
   9.2929775  10.1249758  50.8012469   7.8606647   9.2017810  50.8015428
   7.8193823  10.8902945  49.3794084   8.2637900  11.8855419  49.3702266
   8.2444597  10.2997193  48.5678463   6.3313932  10.9849365  49.3289643
   5.7799995  12.0328305  49.4873311   5.6418879   9.9738128  48.9871295
   8.2367002  10.3971329  53.3376357   7.7662312  10.8174916  54.4022468
   9.1648769   9.4356822  53.3063047   9.4297014   9.0454446  52.4131739
   9.7725491   8.8668675  54.5835205   8.9969764   8.8973624  55.3488028
  10.2047849   7.4162556  54.4067606  11.0543451   7.3234223  53.7302032
  10.4526411   7.0279689  55.3946375   9.0839049   6.5530008  53.8437480
   8.1716897   6.5705098  54.4401185   8.8821560   6.8937049  52.8282096
   9.6875836   5.1340347  53.6663502  10.5973049   5.0544802  53.0712210
  10.0778981   4.8158981  54.6330682   8.6305344   4.3282511  52.9533475
   7.8707859   4.0521110  53.6845330   8.1202080   4.9696835  52.2348550
   9.1807402   3.1314966  52.2713670  10.1258570   3.3068843  51.9613776
   9.2991445   2.3609724  52.9135297   8.5312519   2.8661213  51.5448395
  10.9577382   9.8065387  55.0578911  11.2225389   9.9179214  56.2618340
  11.6730130  10.5484065  54.1396317  11.3646761  10.3936971  53.1903723
  12.5847150  11.6503508  54.3274023  13.3147257  11.3192697  55.0660292
  13.3116095  12.0933522  53.0978377  13.6634543  13.1161775  53.2324968
  14.2200904  11.5334927  52.8757576  12.5881238  12.0219302  52.2857008
  11.9483142  12.8660755  55.1549595  12.6565858  13.8136323  55.5071991
  10.6393503  12.7517605  55.4877619  10.0317046  12.0942154  55.0203210
   9.9702210  13.7508466  56.3314144  10.1181801  14.6898367  55.7980237
   8.4358301  13.4434054  56.4216018   8.0891569  13.1760686  55.4233790
   8.0132751  12.1806347  57.1752672   8.3647399  12.1956796  58.2069390
   6.9241181  12.1481618  57.1472906   8.3718018  11.2728417  56.6900187
   7.5130397  14.6313393  56.7504086   7.8846296  15.0681007  57.6773747
   7.5500470  15.4345675  56.0145041   6.5144168  14.2669434  56.9913819
  10.6228403  13.8058075  57.7240521  10.5348578  14.8831626  58.3410438
  11.3669745  12.7592393  58.2878921  11.3512020  11.8248252  57.9048497
  11.9078637  12.9363261  59.6234124  11.2723093  13.5326582  60.2780563
  12.1231522  11.5103701  60.2508205  12.6879203  11.5527895  61.1821317
  10.7712741  10.8874001  60.5907576  10.2643956  11.5180294  61.3211554
  10.1619223  10.7498022  59.6975280  10.9706146   9.9023723  61.0127573
  13.0279333  10.4919670  59.5025620  13.8753595  11.1105773  59.2071004
  13.3946477   9.7438868  60.2054116  12.4671421  10.0552417  58.6761939
  13.2370703  13.7218887  59.5421188  13.8300381  13.9154686  60.5572742
  13.7457687  14.1301792  58.3546662  13.2831881  13.8939460  57.4884601
  14.9547771  14.9725746  58.2338532  15.6249679  14.7419477  59.0619594
  15.7612127  14.6132149  56.9849604  15.1598589  14.8824648  56.1166412
  16.6785342  15.1999506  56.9362754  16.0583408  13.1329839  56.8006723
  15.1306149  12.5679635  56.7102470  16.8550094  13.0554859  55.4701904
  16.1406715  13.2277536  54.6651157  17.7290785  13.6968686  55.3573562
  17.2888065  12.0679311  55.3131831  16.8083642  12.4509121  57.8947692
  16.5896497  12.7651359  58.9153239  16.7312685  11.3658761  57.8251052
  17.8628503  12.6596748  57.7142535  14.7215318  16.5106325  58.2986599
  15.6656591  17.3155516  58.3194871  13.4389654  16.9416197  58.2822664
  12.8233600  16.1995187  57.9815738  12.9838186  18.3622325  58.4069631
  13.4106959  18.8227315  57.5159993  11.5360785  18.6250491  58.4417145
  11.4746816  19.7020298  58.2853721  11.0615454  18.1448933  57.5859277
  10.8757731  18.1736027  59.7277982  11.2311512  17.1928696  60.0439682
  11.1260507  18.8331522  60.5587388   9.3416103  18.0965750  59.5719828
   8.9002371  19.0114777  59.1767073   9.2013997  17.4054521  58.7408448
   8.7135137  17.7074557  60.8151651   8.3815721  18.4711987  61.3866643
   8.1586697  16.5886785  61.1487274   8.4052879  15.5307120  60.4320815
   9.1367854  15.6944220  59.7551655   8.1366671  14.5942057  60.6983498
   7.4445658  16.4979519  62.2393749   7.0606193  15.5908243  62.4625508
   7.3467337  17.3318244  62.8007889  13.7190305  19.0521966  59.5993809
  13.8445841  18.4242108  60.6550815  14.2835610  20.2593766  59.3519120
  14.2666433  21.0014936  58.1002335  13.3149050  21.1095284  57.5800186
  15.0321112  20.5687665  57.4561014  14.6310741  22.4322390  58.5430974
  13.7396249  23.0190147  58.7647112  15.0540869  22.8954094  57.6516744
  15.5694558  22.1759268  59.6862943  15.7277620  23.0167935  60.3615594
  16.5725369  21.9302350  59.3376341  15.0083744  21.0141694  60.4087106
  15.8642834  20.4871127  60.8302989  14.1509544  21.4677870  61.6366292
  14.6895120  21.5839905  62.7282901  12.8590353  21.6587904  61.4975719
  12.3804016  21.5983684  60.6102394  12.0092352  22.0714117  62.6144657
  12.5390960  22.9321512  63.0224793  10.7025201  22.7158264  62.1598917
  10.1000582  21.8838050  61.7953638  10.2202839  23.0576631  63.0756951
  10.7561330  23.8044368  61.1229791   9.7583371  23.9925514  60.4221278
  11.8319691  24.5080987  61.0785176  11.7380581  21.0610362  63.7007651
  11.3383571  21.4398538  64.8160696  11.8125711  19.7563313  63.3323724
  12.1410909  19.4958349  62.4135056  11.7046010  18.7515176  64.3562054
  10.9778444  19.1141575  65.0831284  11.0462550  17.4844633  63.8064868
  10.0061351  17.7364941  63.5997719  11.4876897  17.2950033  62.8280489
  10.9446361  16.1726362  64.6230012  11.8875721  16.0326028  65.1515487
   9.9125468  16.1932079  65.7205318   9.9391014  15.3305822  66.3863191
   9.8365356  17.1544303  66.2288366   8.9577167  16.1062166  65.2020400
  10.7695771  14.9747315  63.7285547  10.6729984  14.1241091  64.4032481
   9.8773898  15.0838877  63.1119619  11.6532678  14.7199540  63.1435041
  13.0393663  18.4349855  65.0348214  12.9735687  17.9776558  66.1444413
  14.1285252  18.7966762  64.3220254  14.1057891  19.2325669  63.4112113
  15.5387773  18.6972316  64.9411603  15.6337625  17.6692888  65.2910336
  16.6489797  19.0430167  63.9233014  16.7090591  18.3312426  63.0999728
  16.4220062  20.0282131  63.5159059  17.8682679  19.0788687  64.6789676
  18.6522090  18.8855124  64.1596894  15.6953731  19.7559881  66.0413925
  16.0432337  19.5289213  67.2185592  15.2270323  20.9416591  65.7245116
  15.2317281  21.1606816  64.7385561  15.0465820  22.0722246  66.6101798
  16.0315487  22.1333655  67.0729997  14.8126408  23.3857944  65.8389758
  13.9631260  23.2647525  65.1668349  14.4686223  24.1636964  66.5206124
  16.1425156  23.9729155  65.2728321  16.7565320  23.1930196  64.8224475
  16.0155291  25.1828638  64.3475067  15.7862737  26.1380805  64.8198427
  16.9395724  25.2140499  63.7702101  15.1955094  25.0574030  63.6404438
  16.8505047  24.6456877  66.4744230  17.3229478  23.9539714  67.1718655
  17.6899003  25.2299145  66.0973315  16.1115355  25.2999779  66.9369480
  13.9568950  21.8291226  67.6691913  14.1561414  22.2582549  68.8147256
  12.9264928  20.9997961  67.4097212  12.9721506  20.5261962  66.5188099
  11.9745535  20.6295040  68.5162768  11.7184002  21.5254650  69.0817318
  10.7398073  20.1199516  67.8392651  11.0297663  19.3398697  67.1353503
   9.6814517  19.5442551  68.7700183  10.0427998  18.6664668  69.3057563
   9.2968251  20.2907508  69.4649389   8.8012844  19.1771737  68.2421357
  10.0743345  21.1193657  67.0862372  10.5492076  21.1963950  66.2554766
  12.5280876  19.7453526  69.5564475  12.4072121  20.0223075  70.7252833
  13.3864634  18.8002852  69.1877784  13.4311845  18.5568495  68.2085751
  14.3791358  18.0158228  69.9917427  13.7938859  17.5492793  70.7841575
  14.8142068  16.7938157  69.1473567  15.3205717  17.1487193  68.2497276
  15.6338596  16.2794265  69.6490276  13.7226373  15.7521647  68.8053627
  13.4660068  15.3645950  69.7912796  12.8796525  16.3408134  68.4434659
  14.2812394  14.6363155  67.9163146  14.4943213  14.9878979  66.9068150
  15.1484723  14.2376148  68.4426652  13.1670262  13.6447463  67.5323960
  12.3170535  14.1848398  67.1153262  13.6034530  12.9839630  66.7833987
  12.7995943  12.9399274  68.7315269  12.1913127  12.2004014  68.4102873
  13.6019966  12.4752271  69.1319137  12.4556223  13.5053662  69.4944574
  15.5554910  18.6526440  70.6827763  16.0991670  18.0293716  71.5132272
  15.6894159  19.9561037  70.5778003  15.1542971  20.4098476  69.8512576
  16.5348695  20.7897673  71.4084561  17.3396690  20.1738814  71.8098067
  17.2913832  21.8666521  70.5973665  16.5321734  22.4416205  70.0671653
  17.8047015  22.4887725  71.3305585  18.3383831  21.2786952  69.6544047
  18.2765463  20.2169663  69.0751127  19.3332240  22.0700763  69.3510265
  19.3252573  22.9951550  69.7563238  19.7888358  21.7881312  68.4948555
  15.7480775  21.3924360  72.6604546  16.3671833  21.9663736  73.6179950
  14.4085011  21.3191707  72.6771739  13.9491102  20.9970688  71.8373462
  13.5526969  21.6393838  73.8200242  14.1789612  22.1452729  74.5548505
  12.5273496  22.6386122  73.5061055  12.0449798  22.8160290  74.4673294
  13.1036468  23.9335744  72.8421343  12.3278217  24.6970709  72.7849562
  13.8667689  24.3029519  73.5271927  13.5566507  23.7802386  71.8626565
  11.4927793  22.3363833  72.6238231  11.6864203  22.7664438  71.7876705
  13.0094665  20.2847333  74.4308747  13.3171897  19.9629210  75.5955313
  12.2779387  19.5352347  73.5956450  12.0837112  19.8441131  72.6538542
  11.8241676  18.2061875  73.8862028  11.1476999  18.3469373  74.7292217
  10.9486554  17.6304967  72.7027508  11.4842839  17.7522893  71.7612788
  10.6112834  16.6101259  72.8847497   9.6910104  18.4483281  72.5740378
   9.9161265  19.4761406  72.2893901   9.0231664  18.0746288  71.7978681
   8.8196003  18.5739131  73.8135982   8.0990358  19.5112504  73.9910661
   8.7258091  17.6846011  74.6591581  12.9099244  17.1437351  74.1415192
  13.8750626  16.9226811  73.4161206  12.6828512  16.4289004  75.2650281
  11.8765913  16.6021255  75.8481558  13.7731307  15.5211262  75.8819530
  14.7794494  15.8615985  75.6380240  13.5506983  15.4600023  77.3856558
  12.5800222  15.0096180  77.5931214  14.2304452  14.7789765  77.8977685
  13.7574853  16.8476689  78.0471276  12.9842428  17.5113519  77.6601897
  13.5169440  16.7256711  79.5232918  14.3254008  16.2625187  80.0889619
  13.4058423  17.6991886  80.0008065  12.5928925  16.1677093  79.6746442
  15.2418299  17.3714285  77.9635475  15.3895224  18.2831092  78.5424490
  15.9387998  16.6112226  78.3162795  15.4597071  17.6293144  76.9271435
  13.8158121  14.1406433  75.2939286  14.8909405  13.6925750  74.8764090
  12.7788676  13.4702362  75.1813649  24.5667169  12.6137974  31.7689320
  24.2565569  11.5759812  31.6676165  25.5276900  12.7896153  32.2476209
  23.9210030  13.5927754  31.1540259  24.4698417  14.9487052  31.1119261
  23.8059072  15.8784867  30.5706605  25.5208182  15.1962198  31.6490164
  22.7857410  13.3700507  30.4189158  21.4808318  13.1752146  31.0651995
  21.6723838  12.4198607  31.8371696  20.6430729  12.5018149  30.0024173
  21.1278452  11.8853999  29.2483914  19.3008929  12.5501797  30.1164760
  18.7127412  13.4553720  31.1742770  17.6721847  13.2643294  31.4295062
  19.4058140  14.2719092  32.0249671  18.8705862  14.8435029  32.7801746
  20.9009887  14.4509102  31.7921790  21.1894662  15.3393888  31.2172208
  21.4859556  14.6597311  33.1113014  21.7041001  13.7902047  33.4895418
  18.4210557  11.8408998  29.0967696  18.9406534  11.2345379  28.1461482
  17.1900610  11.8653848  29.1926378  43.4969392  16.5348105  46.8098106
  43.7138150  15.6324069  46.2422201  44.1405053  17.3987094  46.6580573
  42.2543382  16.4788194  47.4207159  41.6837828  17.5854021  48.2193823
  42.1306746  18.6866102  48.0231632  40.7348960  17.4378741  48.9289587
  41.5388970  15.3458545  47.3221547  40.7369322  15.0623129  46.0847944
  40.3071920  14.0614771  46.2145668  41.6622668  14.8846244  44.9546775
  42.1845313  13.9309078  44.9892221  41.9704303  15.9420620  44.0864546
  41.0602768  17.1302398  44.1247241  41.3136412  17.9201259  43.4202503
  39.9796478  17.1668175  44.9402556  39.4260195  18.1003081  44.8652941
  39.6184654  16.1317317  45.8821687  39.4288021  16.5921256  46.8595401
  38.4102413  15.6087636  45.4443206  38.0324101  15.1774556  46.2304170
  43.1765634  15.8314326  43.1810422  43.9578712  14.9683569  43.3271010
  43.4297662  16.7712378  42.4451986  18.9016654  15.7377417  58.6229143
  18.6996625  16.7004562  59.0875671  18.9204944  14.9167851  59.3365029
  19.3334537  15.6083125  57.3325529  19.3354238  16.7885989  56.3137823
  19.4339328  17.9169369  56.7609176  19.5946271  16.5156480  55.1448193
  19.6818815  14.3941456  56.8800813  20.8480609  13.7130043  57.3070471
  20.7276028  12.7675885  56.7640288  20.8392465  13.1445697  58.7480584
  19.9283175  12.5562810  58.8355388  21.6886385  13.3252450  59.7439661
  22.8116479  14.2246935  59.3911128  23.4873147  14.4381253  60.2171393
  23.0203880  14.8022137  58.2066890  23.8625631  15.4767590  58.0679223
  22.2055510  14.4875832  57.0280144  21.7408795  15.4078230  56.6532762
  22.9125681  13.7679441  56.0624225  22.9453600  12.9130533  56.5259044
  21.4591856  12.8241666  61.1158947  22.2939230  13.1875547  61.9847320
  20.6607247  11.9685185  61.3748112  16.8577952  13.7262671  73.7278292
  80.3455748  54.8215373  29.7813079  85.1120812  38.9204496  38.1021951
  82.5729314   5.0833773  55.4940885  82.8718353  56.2994606  57.3987849
  59.6884711  29.9818082  62.7110217  58.9883044  41.7821633   1.7149261
  80.8940730  21.6595281  40.0284265  58.7661964  50.2515730  31.0565268
  30.4842908  13.0861540  16.5683004  31.0056942  12.5210062  17.1383691
  29.7502015  12.5369608  16.2931066  55.7516150  14.3381070   4.5927863
  56.5488153  13.9935624   4.9952691  55.2803660  13.5612955   4.2915884
  13.6538248  36.8312938  88.6446569  12.8460557  37.0540503  89.1073885
  14.0778219  37.6742132  88.4835816  14.1254265  46.7966339  17.9711405
  13.3815213  47.2184030  17.5410850  14.7926544  46.7331019  17.2877647
  72.4465631  56.4132662  41.6072114  72.3514787  55.4679244  41.7234849
  72.5201423  56.5319084  40.6602467  72.7270152  67.8711446  61.7329571
  73.1464136  67.8224272  62.5920051  73.1869208  67.2188338  61.2045545
  54.4870835  56.2310528  20.3141631  55.2631511  56.6432088  20.6937397
  54.0349369  55.8384414  21.0609237  18.4337338  30.8806052  12.5592811
  19.3532409  31.0624506  12.7533707  18.4600854  30.1672434  11.9215880
  53.3612526  68.5717517  32.2161811  52.9918484  68.4330575  33.0882684
  52.9962461  67.8632879  31.6860102   2.7540150  54.1018162  33.1209347
   2.8916476  54.4528251  34.0007539   1.8026807  54.0443154  33.0321179
   3.4226470  32.9536783  19.8837123   3.6385358  32.0258657  19.9774543
   2.6603036  33.0804541  20.4485063  10.7302408  50.8805732  47.5634112
  11.5482500  51.2430476  47.2232567  10.6821230  50.0023194  47.1858043
  38.5119235  62.4410739  67.4326774  37.7876402  62.5035634  68.0553657
  38.6206956  63.3325651  67.1015524  67.5063759  23.0692215   7.0648760
  68.3994304  23.1749417   7.3927612  67.4366882  22.1377345   6.8558126
   3.9945348  67.5330804  56.1526689   3.5489991  67.2940647  56.9654427
   3.2863342  67.7472363  55.5453625  66.2536602  55.4690006  47.8008693
  66.2735285  56.2851330  47.3011045  65.5857407  54.9384169  47.3665924
  79.2437350  36.9084532  36.1172432  78.8156838  36.3098008  36.7293047
  78.6155196  37.0094852  35.4021419   2.3299433  30.3874941  57.4765820
   2.8921306  30.1410940  58.2110642   2.9133413  30.8455838  56.8715758
  12.9632762  48.7764400  50.3441713  13.5768562  49.0574268  49.6653505
  12.1608012  49.2640365  50.1583878  10.1389948  29.1168386  60.6641944
  10.6434203  29.7911542  61.1192605  10.6245331  28.9602107  59.8542857
  54.4471446  10.8871384  43.6001161  54.9467307  11.6670487  43.8417468
  54.8736201  10.5661632  42.8055562  22.5991540  30.7005296  60.6195426
  23.0404544  30.8414043  61.4571822  22.2174996  31.5514297  60.4038094
  86.3176282  10.7662399  65.6172566  86.0211976  10.4759073  66.4798502
  85.5537765  11.1974881  65.2341281  64.8711264  26.4303659  62.6608274
  65.1669451  26.5450381  61.7577364  64.0072967  26.0259427  62.5803788
   8.8586918  14.7788578  11.6664233   8.9741810  14.4793628  12.5681976
   9.6609720  14.5086422  11.2197000   9.9672293  71.8603512  70.5382002
   9.7137327  71.2268893  69.8668602   9.8109922  71.4068895  71.3665686
  73.6074882  41.4812571  78.0218491  73.2195514  41.5054974  77.1471210
  72.8573385  41.4686346  78.6162799   9.2090606  44.1239767  49.2186133
   8.5197111  44.3445626  49.8450085   9.4298786  43.2137840  49.4161497
  63.7412153  59.8069707  49.9858796  63.0047829  60.4151425  49.9224268
  63.9899886  59.8276544  50.9099553  64.0175254  39.7394740  78.5093145
  63.4944183  40.4379301  78.9026971  63.4576628  39.3793064  77.8215173
   0.8011488  62.1201880  57.9135830   1.5876423  61.6037344  58.0894674
   0.6484208  62.6072766  58.7233057  43.3852840   9.9170297  83.5627071
  42.8461050   9.5436156  82.8655129  43.0223511  10.7914317  83.7038906
  65.4835522  46.2890413  74.2502143  64.6402895  46.7391605  74.3005399
  65.8717947  46.5985460  73.4318584  76.6037274  23.3040596  75.0152425
  76.7777657  23.2004508  75.9507679  76.5163152  22.4090412  74.6873204
  12.1914130  45.8330338  72.6534293  11.3863454  45.4000416  72.9373585
  12.5192054  46.2688821  73.4400805  28.2777698  51.5101873  57.5200114
  27.5244023  51.7839808  58.0431810  29.0168737  51.9884336  57.8958273
  21.8671618  49.7711190  57.3327610  21.3589458  49.7493553  56.5219128
  21.6009920  50.5850220  57.7604845  15.2897327  69.0902404  88.8408067
  15.5423166  69.3646315  89.7223637  15.1860193  69.9088435  88.3556631
  67.1478137  69.3303898   9.9173208  67.7985845  69.8081680  10.4315749
  67.2696265  68.4146931  10.1681056  15.9697829  67.1895158  52.4956792
  16.7714212  66.7981024  52.1486872  15.9177828  68.0455756  52.0706034
  10.3624457  65.8544697  19.0145060   9.6632647  65.6779837  18.3850376
  10.9525578  66.4523264  18.5556302  45.5820207   7.1483516  54.1513651
  46.0260556   6.3511941  54.4405101  46.0270510   7.8540420  54.6205995
  41.7092614  19.5009759  78.7940180  41.1253849  18.7524659  78.9167085
  41.5635655  19.7723636  77.8877326  50.3629864  18.9013034  29.6933389
  50.8942426  19.4438079  29.1105116  50.6393582  19.1543410  30.5741467
  71.6024754  29.3324425  13.0078392  70.7045250  29.4067528  12.6847373
  72.1480248  29.5340727  12.2476070  12.4941938  32.0462843  21.1183166
  12.2765716  32.9703283  20.9957806  12.9124880  31.7877874  20.2970728
  38.6072965  51.8949168  20.6347565  37.8999196  51.6537103  21.2328110
  39.2048986  51.1475099  20.6568112  12.2194652  32.6662109  81.1538630
  13.1080954  32.5676962  80.8120105  11.6533786  32.5104395  80.3978782
  78.4324548  42.6423907  37.6158544  78.9669373  41.8774425  37.4027472
  78.8037197  42.9737053  38.4335492  64.7913985  28.2373367  80.5207338
  65.2091123  28.1293882  79.6662783  64.1975770  27.4900993  80.5931499
   0.4591660  10.5586907  16.7104205   0.3809402  11.3543842  17.2367135
   0.8766114  10.8481982  15.8991520  68.1222264  10.4730524  20.7826991
  68.7974388  10.9693684  21.2452902  68.4623875   9.5789350  20.7498908
  52.6774121  21.5719243  23.5092025  53.4263808  21.2278384  23.9959084
  52.9916154  21.6477101  22.6082227  53.8600216  50.0114923  41.7979867
  53.6883852  49.2402825  42.3383646  53.1535556  50.0134477  41.1521278
  16.8117327  53.6319124  66.6092027  16.6413869  54.4623966  67.0536238
  16.9275671  52.9999291  67.3187176  35.7981654  34.6413287  32.7428894
  36.2279206  35.0591651  33.4891835  34.8915508  34.9450957  32.7876931
  74.6261978  23.8905527  41.4757301  74.7891529  24.8337608  41.4817224
  73.8651569  23.7825945  40.9052973  68.2251473  21.8738327  28.7698472
  68.7166189  22.6213896  28.4294855  68.7148521  21.5979698  29.5446508
   2.6217568  62.8751495  40.7257246   3.0895605  63.3411734  41.4186988
   1.7046022  62.8978690  40.9987505  79.6521723  52.8064035  30.9827564
  80.2542802  52.3745976  31.5887610  79.7708669  52.3409156  30.1548286
  55.6533781  47.1791926  51.9172288  54.8938458  46.6722147  51.6303216
  55.7467603  47.8654306  51.2564799  58.4049949  32.5465081  39.9135030
  57.7120171  31.9943419  40.2756162  59.2176919  32.1209988  40.1868110
  48.6016090  58.9323727  56.7881403  48.7376008  59.7560330  56.3198223
  47.6558677  58.8907297  56.9298129  60.7795048  35.2829584  36.1488099
  59.9030562  35.1277746  36.5009289  60.6270400  35.6082022  35.2615654
  28.3630065   5.4962122  13.2794764  29.1310876   5.8522374  12.8327893
  28.2445976   6.0635306  14.0412907  45.1497989  21.1585744  18.6419560
  45.2119502  21.5242902  17.7595609  46.0025435  21.3400884  19.0370651
  62.5496712  36.4026554  85.0596249  62.1329152  35.5522161  85.1985471
  63.2330363  36.4466059  85.7284389   9.5381276  68.1248259  36.9714857
   9.1696316  68.6210116  37.7024045   9.5950784  67.2262984  37.2965040
  40.6478110   1.8069697  62.8819646  40.3818781   1.4214112  63.7167437
  40.6852046   2.7478741  63.0538151  15.2543467  38.6777797  14.4110688
  15.5153819  39.0927140  15.2332135  16.0010607  38.8119407  13.8274157
   9.1195866  23.6160351  67.0424539   9.3511954  22.7031427  67.2133829
   8.2436482  23.7147987  67.4155619  86.3805227   6.2664733  68.7715582
  85.6018164   6.7946068  68.5957074  86.1535875   5.7567393  69.5493136
  12.3694070  63.6637849  17.6306602  13.2773418  63.7826987  17.9094892
  11.8514913  64.0921311  18.3122133  37.6986623   2.3507113  70.0005472
  36.8488270   2.2639013  69.5687188  37.4855744   2.4815107  70.9245152
  18.7842063  69.6298818  60.6057996  18.3276815  70.0259625  59.8635483
  18.1001604  69.4894791  61.2604751   1.3055035   0.9046996  81.9834847
   1.5395167   0.4424841  82.7883614   0.3769864   1.1124927  82.0879352
  41.6805888  28.2073625  83.8304037  41.9068088  28.3916444  82.9187587
  41.0162139  27.5202632  83.7781310  25.2081992  41.7987736  53.8189812
  25.2752004  40.9332656  54.2222659  25.4866416  42.4050418  54.5053780
  73.5538193  18.4861415  57.8336317  73.4031986  17.9579229  58.6175516
  73.2921588  19.3712495  58.0873035  41.2002520  30.9791619  84.5661626
  41.1797408  30.1152148  84.1545724  42.0295239  30.9972510  85.0438788
  62.7026703  44.4102995  51.0762558  61.7510665  44.3250435  51.1346806
  62.9106438  44.1609742  50.1758027  84.2028554  38.1637908   5.2681830
  83.3278848  38.4490135   5.0049222  84.0461734  37.4897535   5.9295122
  61.2009061  26.3439125  59.5741299  60.2938453  26.4259983  59.2796228
  61.6953776  26.1542500  58.7767855  74.0108505   2.2043035  63.5861349
  73.8116037   2.8684824  62.9262872  73.3116313   2.2928220  64.2338145
  56.6909414  36.7005534  84.2594595  56.6656566  36.5053211  85.1961968
  55.9546058  36.2110473  83.8928187  52.0735391  53.2432515  76.2236217
  52.7952908  53.4020016  75.6152594  52.2951330  53.7600781  76.9982302
  35.2688246  58.1799242  57.3833236  34.5908900  57.7123803  56.8954311
  35.1790767  59.0912427  57.1046197  35.7847682  68.2049106  52.0174328
  35.8794111  67.7816309  51.1641399  35.8480472  69.1411814  51.8286877
  78.8194321  13.0211185  72.3135242  79.5290773  12.9384756  72.9505529
  78.3363556  12.1978543  72.3849737  41.3585029  17.6216784  18.5466824
  41.4789032  16.6733520  18.4975651  42.1420757  17.9396869  18.9951423
  78.9417406  30.2246677  26.0827457  78.9472855  30.5132250  26.9953988
  79.3314384  29.3506829  26.1055071  78.7144878   2.8895351  43.0794833
  79.3073287   3.5689155  42.7582143  78.0910747   2.7582575  42.3650925
   1.9255298  16.5663869  65.3415555   2.5639384  17.1501505  64.9318162
   2.2908441  15.6898327  65.2214301  71.1486131  13.3219150   1.8661572
  72.0153808  13.1467704   1.4997285  70.5693558  12.7076142   1.4152388
  76.5930487  10.6185330  43.3366803  76.7450787  10.9090559  42.4373944
  75.7816407  10.1127981  43.2910605  36.4479978   0.8398084  53.8671420
  36.3593992   0.3469583  53.0513718  36.8687675   1.6593729  53.6073367
  76.9454465  32.6325532   5.7310574  77.1252594  33.1308993   4.9338433
  77.7389386  32.7286938   6.2577064  42.8390119  25.7735496  13.1932147
  43.7076806  25.6931588  13.5871486  42.7907863  26.6845757  12.9034950
  80.3812529  60.0643998  84.7739975  80.8021873  60.7809818  85.2489251
  79.4638929  60.1041425  85.0443732   0.3401372   8.2117239  34.6169969
   0.6599291   7.5838924  35.2649109   0.8844221   8.0573211  33.8448922
  29.2609516  28.9036664  83.0354873  29.3245819  28.1197174  82.4899537
  29.8518467  28.7335842  83.7690723  76.7399163  65.6264935  72.4712562
  76.1568240  65.1396742  71.8888110  77.2051102  66.2314888  71.8934958
  42.8277333  15.2041319   6.7236471  43.5360707  15.3654004   7.3469308
  42.5577003  14.3021451   6.8960820  61.7910177  33.7929430  82.0083731
  62.5373732  33.2606012  81.7330596  61.1462651  33.1581300  82.3206844
  64.0142197  14.5452772  65.6326730  64.1399439  13.6842037  66.0313930
  63.9939149  15.1514582  66.3731892  19.2616128  54.5017855  72.0715614
  19.7657659  53.8633298  72.5759778  19.7928423  55.2977396  72.0935666
  43.1967376   9.4485878  79.7371377  43.8808830   9.2554117  79.0961541
  43.2594507  10.3934371  79.8769902  20.2670854  67.8978865  74.2911230
  20.5870620  67.9047475  73.3890145  19.3728484  68.2339118  74.2306327
  62.5986636  47.2762120  74.4129039  62.6639627  48.2039223  74.1863613
  62.3256037  46.8499286  73.6005292  81.5219176   9.4270475  28.6382491
  80.8122247   8.8995706  28.2717303  82.0925319   8.7925924  29.0719516
  47.1932618  69.4516587  56.2568580  48.0225150  69.1526278  56.6298880
  46.6323611  69.6100746  57.0161515  16.9115638   0.3120944   6.1053089
  17.8357631   0.3522046   6.3512327  16.4495842   0.7069906   6.8448112
  79.8394636  26.0349988  14.5367336  79.7567977  25.5064002  15.3304474
  79.7469453  25.4071779  13.8201353  69.8994214  21.1746336  13.6528750
  69.7186341  21.7732291  14.3776034  70.8523985  21.0849338  13.6483485
  66.0433286  46.9343929  67.2323195  65.2354265  47.2887280  66.8608728
  65.7510902  46.2398440  67.8225995  64.1379722   3.6178001  43.3394995
  63.2863849   3.3916619  43.7135216  64.1677222   4.5739722  43.3723882
  86.6345222   0.6234637  74.9997481  87.2265743   0.3621801  75.7050402
  86.4644037   1.5514707  75.1612860  53.8652737   0.2386374  47.3096819
  54.2858922   0.4948870  46.4889212  53.1093526  -0.2824306  47.0389365
   6.2393353  59.0662530  28.3418022   6.9784318  58.5595347  28.6782614
   6.3325538  59.9264705  28.7511529   1.8221424   2.9979956  36.4510116
   2.6660550   2.8698222  36.0178663   2.0099192   2.8774217  37.3818358
  14.1111900  62.2133862  56.2177517  14.6422355  61.5081445  55.8478103
  13.2287373  62.0481119  55.8857977  52.2221000  31.0869080  45.6835497
  51.5305417  30.7031214  46.2227034  51.8987307  31.9611342  45.4658510
  46.5121881  57.5973937  37.3808971  46.7471386  57.4594023  38.2984964
  46.8578185  56.8288104  36.9269685  26.9528359  -0.2835928  51.3267946
  27.1530053   0.2472264  50.5558244  26.9418055   0.3414611  52.0516517
  34.5119905  42.4848972   3.1555935  33.9273478  41.7323009   3.0660194
  35.1508724  42.3770775   2.4510109  86.7418478  37.9590757   3.9689350
  85.8439023  38.2085198   4.1873460  86.6467268  37.1923335   3.4038773
  76.2802885   5.9578555   7.7803074  77.0839639   6.4607322   7.6481989
  75.6274840   6.4033837   7.2403234  22.1464649  61.4401802  70.4490337
  21.3761461  60.9771317  70.1197513  21.8249920  61.9333696  71.2037861
   7.7225588  58.3691759  19.8198866   8.0385155  59.2629628  19.9523560
   7.5269118  58.0512011  20.7012753   1.7020515  42.7200257  33.0543121
   2.6351243  42.8294787  33.2376892   1.5010781  43.4057432  32.4174188
  34.7719177  40.3874988  -0.0617330  35.3175213  41.0716630  -0.4496348
  35.1304385  40.2648645   0.8172752  50.1099570  63.5845481  48.8571664
  49.9765189  63.9621059  49.7265778  49.5615817  64.1148713  48.2790023
  60.9225324  14.1516120  14.9929960  60.1272920  14.6466582  14.7961361
  60.7015716  13.2464112  14.7738619  57.4637658  19.2776894  13.7002769
  56.9976750  18.4445041  13.6310429  56.8270488  19.8766291  14.0902698
  17.9496567  37.5239001  72.6192995  18.0648272  36.6277963  72.9354727
  18.4911831  38.0552657  73.2029360  71.3028219  12.8944039  76.2006092
  70.5668121  12.6803004  75.6273020  71.8269499  13.5159964  75.6954910
  57.4055873  49.0635753  26.2951759  57.7748344  49.9289373  26.1190025
  57.8197670  48.4905555  25.6499354  58.7296278   2.2098144  73.2299860
  59.4759898   2.5730407  72.7532865  58.9542722   1.2885749  73.3606936
  77.4408625  53.7279828  48.2005877  76.5629858  54.0964778  48.1017156
  77.3153041  52.9540246  48.7496374  30.6224524  57.2166655  24.1903188
  29.9334755  57.7502127  23.7942505  30.5235896  56.3564380  23.7823156
  46.3753667  26.5305790  64.8231681  46.7922909  25.7552718  64.4472629
  47.0829109  26.9850975  65.2803616  64.5970473   4.4478456  50.4398544
  65.1894783   3.8986364  49.9264086  64.5179594   3.9950371  51.2794623
   0.6113958  17.9191927   3.9468824  -0.3258525  18.1112945   3.9169768
   0.9976275  18.5094191   3.2998200  21.0898761  52.8606173  29.2349607
  20.4222567  53.4696976  29.5504561  21.9133005  53.2105419  29.5751912
  48.4769574  37.0011127  63.3519709  48.3907016  37.9480022  63.2415534
  48.6581285  36.6727983  62.4712789  60.4073769  23.8946086  20.3251025
  60.3375753  23.9403810  21.2786561  59.6040903  24.3059687  20.0061270
  80.1187964  30.7311164  46.0998117  80.5026487  29.8557061  46.0493537
  80.7634934  31.2999460  45.6790618  71.4758634  27.7586498  33.5972177
  70.5756406  27.6917582  33.9155827  71.9490608  27.0749967  34.0714902
  78.9582898  52.0556332   5.6079317  79.4328046  51.5884236   6.2955237
  78.0400376  52.0042131   5.8732630   3.2210343  49.1745281  32.4245848
   2.8271190  48.3155516  32.5769726   3.8939232  49.2528220  33.1008409
  51.5809995  61.0918428   9.4955158  50.7228685  61.5130239   9.4460241
  51.4195116  60.1870653   9.2280626   7.2649464  45.3344316  35.9177816
   7.8458787  45.4130094  35.1610946   7.3579078  44.4237656  36.1975627
  10.2635671  29.9470722  80.0811950  10.3678035  29.1532583  80.6058150
   9.7374422  29.6708546  79.3307763   7.2378675  67.8927538  79.8977279
   7.0342379  66.9935654  80.1550742   6.4185423  68.2294480  79.5349950
  32.3258371  62.6981046  52.3030118  31.6265722  63.1274928  51.8101768
  31.9422688  62.5266916  53.1630843  69.0520458  53.0286444  29.7829537
  69.0209917  53.4341602  28.9164524  69.6025120  52.2544232  29.6654785
  56.5168590  33.8685145  14.4341791  57.0060315  34.6779794  14.5815177
  56.9196729  33.2339738  15.0269108  84.6931042  23.2839046  35.4926434
  85.5200382  23.6806865  35.2188259  84.7232411  22.3965212  35.1350481
  29.3559892  24.2738102  23.4943174  28.5414347  24.6165924  23.1265767
  29.2641725  24.3999634  24.4387150  53.8306944  38.5986643   2.5897941
  54.3101030  38.3629961   1.7955273  53.0670952  38.0214754   2.5887991
  53.3455202  24.6036760  14.2059628  53.3629582  24.5890097  15.1628915
  52.5974492  25.1598673  13.9885395  49.5035613  49.4942120   7.6259449
  49.7464144  48.6371253   7.9761686  48.7008543  49.3317874   7.1304538
  43.9231136   5.2405188  85.7474274  43.0644823   4.8790139  85.5276586
  43.7833091   6.1868898  85.7801135  46.9746747   4.1329211  61.9557599
  46.2650454   4.7227370  62.2102697  46.8198223   3.9585027  61.0274115
   3.9280932  14.2088963  58.4117108   3.0807123  13.8061370  58.6013482
   4.3212439  13.6395274  57.7502855  55.3502369  16.8934915  13.4413796
  55.0969642  15.9705507  13.4250986  54.7429080  17.2976243  14.0611055
  34.6611254  60.4757707  17.9712255  34.9218556  61.3441121  18.2782022
  34.8782674  60.4761178  17.0389803  67.7354265  44.5898932  59.1376667
  67.6558360  44.1698775  58.2812299  68.6731533  44.7538093  59.2378249
  81.9801710  68.3778221  35.1343996  81.6282696  68.7640332  34.3323783
  81.2257464  67.9606480  35.5503817  86.0474329  44.3654243  62.6036534
  86.4003453  44.0232087  61.7823293  86.6111611  43.9914438  63.2808395
   4.3117410  30.6948805  55.4481984   4.8709470  29.9248538  55.3453425
   4.8994905  31.4377914  55.3108458   8.1090242  40.7857064  70.0315688
   7.8220051  40.8599489  69.1214370   8.2392722  41.6902852  70.3161817
  24.9525062  41.3073723  66.6801541  25.7851525  41.4754532  66.2389276
  25.1880941  41.1932607  67.6008650  79.9360783  44.5656171  32.8257871
  79.5087050  44.1107306  33.5515020  80.5992209  43.9496267  32.5142915
   2.8387796  63.9818756  73.2467841   2.3995506  64.3672244  74.0049504
   2.1482090  63.5044621  72.7869793  39.7619976  45.8514806  22.4334597
  40.7061558  46.0079744  22.4159403  39.6749692  44.9020424  22.3484604
  57.0139773  62.8361086  66.5281868  56.7661534  62.2929312  65.7800066
  57.8253989  63.2641670  66.2550698  32.1391957  42.1650329  20.6560509
  32.3748491  41.9325081  21.5541776  31.9017650  43.0911367  20.7028515
  37.4226832  48.3122614  51.6413651  37.2291838  48.9949588  50.9989369
  37.4672010  47.5057517  51.1277581  86.5092174  42.9836066  87.9558697
  86.2108792  43.8699278  88.1599794  86.1360535  42.7977616  87.0942188
  30.5957213  51.5244882  76.7788769  30.7197725  52.4601974  76.9379099
  30.1703532  51.2009042  77.5729721  83.0172269  16.0889465  11.4114313
  82.9718023  15.1329126  11.4243811  82.1108962  16.3734090  11.5292346
  50.9935111  40.2708994  86.8078787  50.9312682  39.8881362  85.9327502
  50.1182553  40.1619575  87.1797533   7.5863079  36.6983026  49.1165136
   8.2819523  37.2938802  49.3950778   6.7787134  37.1179891  49.4129698
  57.5903411  45.7397258  23.9339097  57.9730774  46.5950752  24.1291589
  56.9103690  45.9238830  23.2858696  30.8790694  44.3259753  85.7009190
  31.4582200  44.9785581  85.3072793  31.1815666  43.4909091  85.3439992
  86.2185646  30.5405149  58.2645825  86.8297329  29.9259342  57.8583857
  86.7712941  31.1083220  58.8015342   2.5722924  37.0389197  77.9247362
   3.1861209  37.3322995  77.2514051   2.6411266  36.0842825  77.9120258
  85.3326423  55.7926150  53.8393981  86.1604116  55.3191437  53.7566051
  85.4872585  56.6251800  53.3931232  61.7599444  37.4593006  31.8136802
  61.4378371  36.7942123  31.2052920  62.0226931  36.9659535  32.5907281
   0.8579065  52.3504697  88.7435845   1.7486418  52.3058874  88.3959713
   0.5534246  51.4429984  88.7392836  31.0139807   5.5036928   4.0471426
  31.6860097   5.2016563   3.4360919  31.4972126   5.9971554   4.7098744
  12.5711149  64.1926594  44.4671221  12.6684268  64.7916190  45.2073989
  11.6375439  64.2205289  44.2575980  75.2437741  55.9096052  19.7651803
  75.3188051  56.4092969  20.5781443  75.6552909  56.4655316  19.1034918
  47.2912374  14.7464759  68.9191168  46.4289137  14.8730249  69.3148629
  47.1380580  14.8333358  67.9782538   8.3522750  67.4876319  55.3147424
   7.6860612  67.3918976  55.9953495   8.4050863  66.6227879  54.9079405
  71.2149854  57.7672000  31.2481133  71.7318416  56.9739141  31.1074399
  71.5887537  58.4071518  30.6423157  21.9336094  17.1528883  88.3070076
  21.5107579  16.3097523  88.4699497  22.3881992  17.3548601  89.1248018
  61.2475589  28.3525448  30.8594419  61.5806101  28.6702304  31.6987181
  60.8165305  27.5244262  31.0707849  34.2744641  51.6776590  41.9185704
  34.9922161  51.0999290  42.1779774  34.5874926  52.5575707  42.1283331
  52.7189151  71.0337477  86.6537649  53.6348543  70.7925712  86.5154854
  52.5601842  70.8505833  87.5797709  23.1559204  67.7905034   8.0711931
  23.2808496  67.5521881   7.1525907  22.6801977  68.6205586   8.0407274
  53.5575828  46.8266190  39.3663612  53.0696111  46.6559466  38.5607643
  54.4621003  46.9474881  39.0774483  48.5327274  38.5481808  33.1179369
  49.3681673  38.2243816  33.4547249  48.7321413  39.4224492  32.7830926
  45.0640449   8.0906836  77.6748982  44.5716200   7.4497771  78.1877223
  44.9935311   7.7802614  76.7721813  66.8592486  68.0685624  52.4517196
  66.4482363  68.5347656  53.1797000  67.0537120  67.1996594  52.8030363
  66.2433253   4.3037151  17.1443512  66.0064446   3.8491707  17.9527501
  66.1050486   3.6541647  16.4550068   3.9581779  66.7489466   1.5772974
   4.4698225  67.2622877   2.2025433   4.6125967  66.3389281   1.0117421
  70.6101616  51.6749167  46.1185352  71.0437611  51.3715478  45.3209196
  70.2268522  52.5180768  45.8769017  74.5337753  67.9505727  25.6377504
  74.0371567  67.2799330  26.1066258  73.9617207  68.2114228  24.9159869
  51.2169890  50.9678430  47.9114321  50.4096307  50.4577722  47.9764867
  51.1344217  51.4425124  47.0843266  35.8430077  43.4784267  42.8742547
  36.2729406  42.7974497  43.3916132  36.5010402  44.1688053  42.7929987
  60.2913908  37.8313732  63.8091791  60.2608849  37.2892408  63.0208938
  59.3733926  37.9551921  64.0503846  63.1629791  24.5017979  84.8486949
  63.7426263  23.7670384  84.6477733  62.3429933  24.2887605  84.4031949
  58.9238825  31.2116126  70.9961618  58.9543942  30.5846989  71.7188512
  58.5809610  32.0140570  71.3895062  29.0194156   3.2717643  69.3304530
  29.4420807   3.7142352  70.0665274  29.6815182   3.2711234  68.6391849
  44.8801222  38.5617019  25.5820120  45.6293878  38.5945258  26.1767855
  44.1423689  38.3145701  26.1395762  55.6716598  62.8659727  70.8950526
  56.6176506  63.0040958  70.9425421  55.4157181  63.2477440  70.0554239
  18.7650874  34.2910097  33.5862416  18.9592139  34.8980429  32.8720585
  17.9557617  33.8561665  33.3176618  32.7422661  34.9245260   5.9249857
  33.3904613  34.2233912   5.9919543  31.9161029  34.5117610   6.1766031
  22.2561239  47.3077622  38.2900509  22.6484590  47.4439833  37.4276422
  22.3258211  48.1590778  38.7220647  22.7713361  53.7460500  43.1882667
  22.3667291  54.6134715  43.1985165  23.5597322  53.8557764  42.6566431
  84.7083079   4.8835943  56.3615014  85.0353204   5.7252646  56.6791266
  84.8823068   4.2732102  57.0780120   8.3343900  47.1476062  48.5203074
   8.6670369  46.3277683  48.1550080   8.7234528  47.8292509  47.9723816
  37.5967993  44.7367130  77.6506322  37.6438839  45.6051953  78.0503237
  36.9757934  44.2549616  78.1969829  55.2626049  13.9430324  59.2920110
  54.4081041  14.0131172  59.7176263  55.0621016  13.6772737  58.3945687
  25.5336998  42.5743009  38.1987229  26.0526582  42.8369946  38.9589242
  24.7714400  43.1529523  38.2175500  40.7333285  58.3472548  52.3917763
  40.5374159  57.4566224  52.1008740  41.1554611  58.7582219  51.6373613
  74.7745673  62.0648685  38.1119298  74.2706131  61.5501228  37.4816134
  74.5946052  62.9749891  37.8762903   4.1667707  24.2811613  11.8241979
   5.1024643  24.2893518  12.0257970   3.9335484  25.2049172  11.7319254
  69.9083503  40.9191930  84.3139138  70.7982960  41.1229090  84.6015390
  69.9313600  39.9848124  84.1074309  43.6074783  59.0205025   6.4248245
  44.4155989  58.6521748   6.0677425  43.8814076  59.8348034   6.8468535
   8.4726857  49.9632719  58.1108959   7.5429820  50.1898483  58.1342647
   8.4847860  49.0115115  58.0097152  48.5553163  11.0916299  22.3295397
  48.9029832  10.2357285  22.5801238  47.6064819  10.9674181  22.3068115
  82.2974353  44.9882215   7.9132570  82.3675860  45.7397565   8.5019046
  82.7943001  44.2956450   8.3487969  44.8817018  13.0037222  67.7357727
  44.8502831  12.0493465  67.8021934  45.2654994  13.2890153  68.5649525
  47.5300405  53.0664877  27.1692933  48.2287281  53.5863501  26.7720395
  46.8407999  53.0445322  26.5054430  11.7197930  17.5840117  12.6558282
  11.3499138  17.3898197  11.7946020  11.0843448  18.1734464  13.0620353
  74.3405726   1.1369184  45.9283538  74.2101974   0.1900512  45.9800894
  74.4360668   1.4156559  46.8390778  13.4824330  65.1008468  66.4218772
  12.5587620  64.8869656  66.2902777  13.5360066  65.3787678  67.3362741
  37.0482773  49.3523471  45.5648306  37.5044818  48.5927660  45.2026898
  36.7753709  49.8559085  44.7979018  15.0210526   0.6966241  73.8206716
  15.3424937   0.5182991  74.7044745  14.0704843   0.6072446  73.8889589
   7.5663000  21.8072523  55.4648994   7.0661371  21.2781830  54.8434860
   7.3115640  21.4718213  56.3244501  45.0818073  54.3538469  -0.2420045
  44.2237310  54.7247405  -0.4478555  45.0360845  54.1481631   0.6917168
   3.2653983  48.2575908  45.6022737   3.1552972  48.5702680  44.7043079
   2.5661031  47.6145547  45.7194174   0.4195389   0.8894223  51.5870563
   0.2245088   0.2283314  50.9228621   0.1929713   1.7211313  51.1709324
  46.2543283  55.4538953  60.3939295  46.8100423  55.7442343  61.1171979
  45.7940146  54.6883819  60.7379243   4.7680692  71.1719215  53.7536287
   3.8198120  71.2816900  53.6829811   5.0772696  71.1713956  52.8477443
  51.9849121  33.6566474  35.4292640  51.8102687  34.3746177  36.0377458
  51.8142841  34.0290263  34.5641328  17.9191222  66.3347006  60.3872663
  17.5176073  66.8135002  59.6621672  17.9254301  66.9594199  61.1124682
  55.0978253   5.0816853  80.5936683  54.6671156   5.2901109  81.4226917
  55.6309574   4.3107968  80.7879179  67.4703561  58.8437117  82.7390154
  66.8812989  59.4649687  83.1671312  68.3435683  59.0955481  83.0395327
  82.4721633  59.1470117  50.9834066  82.5306200  59.7924662  50.2789898
  81.5462135  59.1403270  51.2259023  56.3025343  47.2752362  12.5310798
  55.3587519  47.3111848  12.3754704  56.5724462  46.4299569  12.1720781
  55.2598691  54.4836538  31.0390617  55.8718491  55.1677770  31.3105166
  54.9170776  54.7885283  30.1989561  74.5360915   4.8880144  55.6333108
  73.8000346   4.3623360  55.9465427  74.1461566   5.4956519  55.0048529
  48.7814679  14.1598991  30.5604022  48.7815160  14.5471497  31.4357700
  49.6845031  14.2534368  30.2570707  34.1051951  53.9662876  72.3027509
  34.5807127  53.1452819  72.1760051  33.6046787  53.8314108  73.1074393
  33.0832137  53.5403817  74.9664872  32.1663471  53.4673708  75.2315475
  33.4794223  52.7146106  75.2446107  69.8228412  48.0635908  69.9934065
  69.8284788  47.4196829  70.7016315  69.5110437  48.8695845  70.4049746
  86.6153520  37.4143613  87.3360467  86.0686119  38.1957531  87.2539864
  87.3899600  37.6074918  86.8079228  10.4752777  43.7069184  76.5768735
  10.3056302  42.8903002  77.0465396  10.3521328  44.3914651  77.2344928
  74.2284747  22.6683935  55.7795268  74.8448892  23.3705519  55.5715882
  73.9586686  22.3263386  54.9272152  47.6497037  31.1419942   5.7870111
  48.3776018  31.6639745   6.1245503  46.8751163  31.5054399   6.2161421
  29.6041290  42.0062026  16.5909133  29.9113593  41.4641196  17.3175408
  28.6730215  41.7980560  16.5138052  80.0850645  64.8671963  46.0489331
  80.8101720  65.1477475  46.6072717  79.3072724  64.9683474  46.5976040
  19.6015324  22.6552871  14.6455151  19.1822365  21.9091486  15.0741176
  19.2417692  23.4214659  15.0924741  13.6995110  56.6877682  58.4553747
  12.7963845  56.9903146  58.5505591  13.7266548  55.8600296  58.9353163
  68.5067662  20.2442801  33.6987340  69.3010778  20.5718720  34.1206162
  67.8805307  20.1402644  34.4151428  15.5406608  71.0232284  20.6589909
  16.3901154  70.6833322  20.9402902  15.5897035  71.9634021  20.8319076
  77.7426009  62.7914814  68.3667707  78.0621636  62.4476299  69.2009635
  77.4721728  62.0156108  67.8757257   3.4110599  58.3208646  81.7734982
   3.5862030  57.4276025  82.0695381   3.3008460  58.2418796  80.8259508
  21.6087021  24.6212346  68.8211175  20.9133194  24.5559637  69.4756512
  22.3501404  24.1593725  69.2125054  83.7493540  61.1421348  80.4444603
  84.3285849  60.8662208  81.1548087  84.0224799  60.6144172  79.6940282
  41.9843268  29.2975492  74.5182356  41.0681805  29.5746295  74.5066480
  42.3814244  29.7520376  73.7752782  71.8090892  38.5664620  75.5864582
  72.5238927  39.1895057  75.4556747  71.2668657  38.9636335  76.2679862
  48.0186789  39.6995113  85.1904288  47.4131022  39.4610811  84.4885316
  47.4878637  40.2105154  85.8014459  20.5054162  69.1409016  71.6720799
  19.6032830  68.9690118  71.4021884  20.5443820  70.0904336  71.7865461
  14.7935195  66.3261781  34.7716997  14.0325567  66.8462273  35.0299949
  15.5461103  66.8580810  35.0303853  59.3317432  19.6214865  73.5912304
  59.5167860  20.5132962  73.2968386  59.7650906  19.5553927  74.4421555
  18.9407402  59.1130247  78.9795423  18.9425349  59.9284005  79.4809313
  18.1386436  58.6667096  79.2509750  59.8383536  29.6500165  18.7654558
  59.6702850  29.7320866  17.8267071  59.3077522  28.9018703  19.0392646
  85.7715786  27.5045750  27.8746930  85.7040321  27.9566823  27.0337006
  86.7058343  27.3213048  27.9737392  58.2309837  56.2371537  39.1986658
  59.0420859  56.0715556  38.7181220  58.4782284  56.1588361  40.1200606
  50.4401219  59.6138156  37.7896776  49.9111044  60.0379325  37.1140319
  50.3459057  58.6774216  37.6149739   8.1683425  63.7487041  73.4738131
   8.3728779  64.6782377  73.5756194   7.2316353  63.6876625  73.6611238
  48.3844694  48.0377211  10.8353048  49.2975423  47.9127113  10.5766503
  48.4338213  48.4133106  11.7143547  18.1032573   3.4018431  85.3936208
  17.8232944   3.9965448  84.6977886  17.2875787   3.0535242  85.7535848
  25.8406846  48.0953847  21.4808228  26.7655086  48.2227862  21.6922498
  25.3983220  48.8444871  21.8800631  42.6665518  20.7305568  12.5367758
  42.2158310  20.9504900  11.7214772  42.9403988  19.8206844  12.4211384
  15.8996395  45.0011510  28.5344278  16.5115836  44.6368724  29.1740038
  15.0427297  44.6762765  28.8108225  55.1821434  16.6575762  24.8032460
  54.5039458  16.9230293  24.1821063  55.2097121  17.3668968  25.4453801
  -0.2088217  37.4827519  83.3606731   0.7021222  37.6799501  83.1426688
  -0.1690825  36.6434318  83.8191428  53.3996057  60.2219005  38.4101035
  52.6997807  60.0416272  37.7824265  53.0483715  59.9291643  39.2510386
  17.3011616  43.6713819  32.5352455  17.4909737  43.6396875  33.4729014
  18.1201392  43.9632133  32.1348182  52.8516401  38.8507418  29.7031881
  53.6209778  38.8709586  29.1340285  53.1557189  39.2244583  30.5302939
  60.1967782  32.4700678  59.4049303  60.8975581  33.0635402  59.6749856
  60.2202784  32.4913428  58.4482553  26.3509490  10.5135953   7.0818389
  25.6560328  11.0703963   7.4329742  27.1468590  11.0373888   7.1734884
  36.2347105  42.6626900   5.6113217  36.5746507  41.9012990   5.1412619
  35.5152582  42.9796785   5.0653010  52.1678541  30.9090885  35.4816207
  51.9855381  30.4298713  34.6733240  52.0356884  31.8283984  35.2500318
  39.4204935  45.4997135  63.1677244  40.1882602  45.0920773  63.5684722
  38.6764838  45.1217374  63.6365691  74.3014798  30.0663285  70.5645161
  73.6107519  30.7138510  70.4236564  74.9083962  30.4914894  71.1704225
  20.8509356  61.7364235  30.0299179  20.0159113  61.3746471  30.3267074
  20.8972301  62.5999461  30.4403046  43.0917434   8.8119902  88.9145267
  43.9529134   8.4024367  88.9974970  42.7756614   8.5330479  88.0551576
  79.4046917  66.6447551  30.6001397  79.3047657  66.8746812  31.5239258
  78.8284442  67.2535942  30.1380947  29.0611363   3.3163975  33.1327718
  30.0063597   3.2705760  32.9889491  28.6877457   2.7582206  32.4506795
  70.6753339  51.7895202  54.3380220  69.9499480  52.3972776  54.1942232
  71.4613451  52.3157022  54.1912207  68.0828043  57.8974617  23.5339579
  67.5594799  57.1815511  23.1736310  67.9575699  58.6193006  22.9179249
  53.1313249  19.9507339  74.8817032  53.6026661  20.5576987  74.3110344
  52.5028694  19.5178039  74.3039082   8.2741981   7.8640266  62.7184833
   7.6004382   7.2267326  62.4815535   7.9859802   8.2152586  63.5609786
  84.7603320  61.9103222   1.3309427  83.8433193  62.1354652   1.4878824
  84.8257403  60.9874159   1.5762947  55.0898697   1.5242990  45.1877731
  55.8673821   1.5257382  45.7460779  55.0126611   2.4281655  44.8823290
  86.6485400  15.6106786  23.5202140  87.3124808  15.6288424  24.2094778
  86.1570011  16.4232999  23.6396630  53.6885260  45.2635063  74.1905504
  52.8796642  44.8594110  73.8764141  54.2321065  44.5264242  74.4688706
  70.2983024  57.7565092  -0.0664643  69.9829340  57.5107259   0.8032283
  71.1260034  57.2855350  -0.1630359  75.5836353  49.3126365  85.7231253
  75.2968285  48.4373939  85.9837477  76.5125812  49.3384796  85.9525235
  37.4998055  63.7052675  69.9653799  36.7617864  64.3144830  69.9857806
  38.2564495  64.2526002  69.7552639  82.0893148  31.8056186  83.8214104
  82.7671720  32.4046366  83.5084902  81.5673738  31.6073696  83.0439101
  17.9163069  11.5401082  62.3458477  17.8706262  12.4490467  62.0492405
  18.3784867  11.0820323  61.6438589  28.2922293  48.3946080  50.7371082
  28.7041201  47.6011857  51.0792467  28.9138512  48.7270301  50.0895639
  68.1211831  18.0163767  43.4601581  67.4428261  18.4256042  42.9229463
  67.7316095  17.9553539  44.3323624  72.0730454  68.1572069  76.4968169
  71.3925083  67.4925481  76.6032582  71.7915800  68.6688683  75.7383897
  61.8129429   2.4671003  18.4161343  61.2927238   2.9159032  17.7496661
  61.7839601   3.0496895  19.1750688  64.7764066  50.8946399  23.6665979
  64.0308672  50.3670768  23.9530941  64.9360221  50.6142467  22.7654129
  43.8556958  38.2732131  85.8845644  43.7408944  37.6834241  86.6296827
  43.3072758  37.8981515  85.1955098  23.5406515  22.5052231  61.3697978
  23.9677001  21.7403755  60.9839617  23.9717977  23.2537369  60.9574000
  84.8054410  56.6154436  58.9078958  84.5757585  57.0912089  59.7060971
  85.7611429  56.5649793  58.9257566  58.4942246  43.1710084  11.4014019
  59.1267975  43.5081280  12.0357786  59.0255950  42.6954649  10.7628600
  38.2746903   3.8703087  85.1764710  37.4914160   4.4088940  85.2888951
  38.6945675   4.2193794  84.3902874  30.0233863  18.8081028  88.9430049
  29.2118077  18.8425857  89.4493477  29.7453061  18.5596321  88.0614350
  39.7157790  40.2001997  83.5641244  39.8659247  39.2736677  83.3764372
  40.4243191  40.6547526  83.1085100  27.9100294  16.0775765   4.1109259
  27.6294029  15.6850986   3.2842205  28.8560479  15.9337636   4.1353919
  17.1901827   2.9347280  16.3600215  17.5877252   2.7732443  15.5043844
  17.1489331   2.0715654  16.7717017  27.3995642  23.4922905  81.3416100
  27.2737796  22.5872545  81.6267762  26.9971620  24.0190995  82.0321002
  83.0859254  45.3300328  76.1616504  83.6273730  44.9855296  75.4514505
  83.7089537  45.7451886  76.7580674  59.8854411  49.8611811  73.6623300
  59.7866260  50.7508461  73.3232671  60.5429369  49.9399335  74.3535095
   2.2306271  28.3402051   2.9628685   1.9061892  28.4278719   3.8591310
   3.0072806  28.8989379   2.9335611  81.1882009  58.0629123  18.2208862
  80.9734220  58.4886574  19.0508518  82.0897415  57.7613145  18.3326679
   6.7692476  67.0113231  72.4058548   7.6323525  66.6097439  72.5059344
   6.9364966  67.8218104  71.9248455  62.6869368  48.1276410  52.9267094
  61.8056530  47.7540701  52.9227716  62.5905060  48.9640291  53.3821081
   4.3546983  13.5889562  27.1351882   4.9512615  13.8945393  27.8185352
   3.7731806  14.3321963  26.9749912  31.8579840  37.5837507  24.5546042
  32.1918854  37.1445632  23.7723918  31.2729495  36.9424822  24.9580161
  50.1401116  27.9032630  85.0792332  49.3264049  27.4969978  84.7808010
  50.5487321  27.2403150  85.6357952  44.2195010  25.9515631  78.2303820
  43.7213642  25.1478822  78.0814239  44.2270846  26.3898418  77.3794495
  34.8313068  51.0870076  72.4676745  34.2312929  50.9638399  73.2032321
  35.2227040  50.2242759  72.3308020  27.6150279  27.7928330  10.3915099
  28.4601687  28.1077265  10.0708684  27.8121770  26.9484155  10.7968778
   2.6084678  42.9778681  63.6116491   2.7368967  43.9157284  63.4696773
   2.3406103  42.9088144  64.5280091  60.1501398  19.0489079  55.9375372
  60.4893884  19.1622796  55.0496808  59.5129653  19.7554634  56.0425131
  48.1029495  66.4525983  36.6266170  47.4934846  67.0907476  36.2557400
  48.1461123  66.6750507  37.5566083  59.2842839  64.1888265  18.1843090
  58.8437979  64.1003435  19.0295158  58.9626656  63.4497112  17.6680707
  67.5605491  62.2240705  71.9482174  66.7369815  61.8336562  71.6557364
  67.5918007  62.0417903  72.8873814  21.6865490  33.5580412  15.0616526
  21.0394488  33.0281316  15.5271513  21.4282933  34.4623970  15.2396313
   8.6763703  56.2716713  18.1897689   8.3128936  56.9213014  18.7915141
   8.9028270  55.5280679  18.7483413  54.6318305  16.7149707  58.0581019
  54.2063627  17.5066977  57.7288947  53.9657322  16.0326607  57.9744485
  20.9380447  65.9911233  36.8616122  21.2815855  65.9580906  35.9687962
  21.1814607  65.1477234  37.2432628  40.8486303  58.6027650  12.2043254
  41.0262391  58.4637315  11.2740800  41.7148417  58.6602134  12.6075740
  51.0579047  56.0816519  71.2045439  50.7995532  55.9534217  72.1172560
  51.4556799  55.2493573  70.9490197  53.9460110  25.3451857  49.3736123
  54.6705162  24.9710383  49.8749483  53.1614964  24.9544666  49.7584594
   7.4046369  44.6036550  20.1965653   6.8141031  45.0435204  20.8081372
   6.8879805  43.8791298  19.8439164  29.8149226  16.9893581   8.2978908
  30.4024251  16.5368140   8.9030986  28.9697909  16.5554697   8.4150452
  25.3620360  33.0326735   9.9721653  26.0234353  32.3921370  10.2338822
  25.7591315  33.5004442   9.2374969  79.2982955  46.0613586  79.5184716
  79.1575387  45.1189353  79.4275995  78.5992768  46.4590784  78.9994112
  71.9862483  13.0756532  30.8467691  71.4691981  12.4309531  30.3638067
  72.1376445  13.7810736  30.2177277  11.0395429  61.1471761  50.6206571
  10.3451861  60.5816567  50.2825915  11.7683121  61.0210133  50.0130304
  20.3033512  14.2752209  15.8446033  21.0103968  14.0139811  16.4345797
  20.3337654  15.2319366  15.8431919  74.1171142  65.0806290  58.2169502
  75.0583337  64.9221091  58.1447756  73.7309996  64.2068404  58.2772896
  73.9004492  63.7088244   6.4788601  74.1215498  64.5296520   6.9188469
  74.7458091  63.2943187   6.3062811  70.0832229  67.9591615  14.2749917
  70.0801572  68.7767257  14.7727982  70.9726369  67.6202472  14.3765379
  41.7021720  43.7398472  46.2718360  40.9264797  43.1894736  46.3796420
  42.3207174  43.4125522  46.9249143  62.3261731  60.8329075  39.6029217
  62.4571239  61.7535473  39.3759719  62.2398610  60.8311620  40.5562207
  67.8992259  70.3299818  18.6047756  67.1015820  70.6131211  18.1577541
  67.6819260  69.4678143  18.9592889  69.9402536  22.3674929  23.0209220
  70.0588803  21.6027553  22.4575963  70.3713314  22.1295054  23.8417543
  50.7957501  38.5758302  35.8818173  50.1314458  38.7138121  36.5570155
  51.4956224  39.1893338  36.1054778  82.9203472  69.0091444  83.2025736
  83.2348803  69.6629353  82.5781873  83.1204366  68.1686754  82.7904960
  82.9703096  42.2216934   3.5627358  82.8225083  41.3939639   3.1052968
  83.9181808  42.3498002   3.5258484  26.3111616  55.7612224  79.5357843
  25.9226598  56.5985954  79.7889736  26.3482762  55.2586025  80.3495580
  60.9512612  18.5321481  60.3114038  60.9420393  19.4868520  60.2429393
  61.0584010  18.2284044  59.4100200  69.0863802  24.0560846  85.0634283
  69.9033848  24.5527050  85.0175648  69.3637041  23.1517535  85.2100868
  24.1457745  61.6019502   7.4437299  23.4712068  61.0514517   7.0460596
  23.7274318  62.4567241   7.5466023  44.0831694  34.2430423  71.3313825
  44.1385842  33.6561457  70.5772517  44.9831867  34.3084241  71.6506409
  71.3663339   8.0996716  75.3954541  71.4606883   8.7876357  76.0542670
  70.8242429   8.4947106  74.7125826   2.4094128  42.9090167  18.0163374
   1.4933985  42.6883072  17.8477048   2.8927204  42.4825716  17.3086720
  25.8734744  49.2458305  51.5644229  26.6154443  48.6469867  51.4801691
  25.1364054  48.7691480  51.1826707  58.8218921  14.3170966  20.7960653
  57.9221485  14.0324736  20.6358062  59.1805933  13.6555781  21.3876383
  59.7945362  30.4451581  41.2339009  59.8766517  30.3466504  42.1824709
  59.7239725  29.5489225  40.9052457  15.3021189  69.0219112  23.5138982
  14.7845585  68.4458170  24.0764624  14.6653750  69.3991420  22.9068678
  17.6919015  59.0759663  29.5160929  18.1321601  59.7793523  29.9932222
  16.7627996  59.3020328  29.5596293   1.1002762  20.4378233  49.8092995
   0.8510071  19.9599586  50.6003382   1.1493819  21.3524023  50.0874463
  69.6176023  17.4037780  12.5103969  69.5624190  16.5982438  11.9962945
  69.5786289  17.1101437  13.4206122  65.3646399  29.0549358  45.7707229
  65.5836897  29.6216726  46.5103569  64.5356558  28.6461311  46.0195119
   4.4236680  25.7839542  36.5771454   4.0650767  25.8134853  35.6901437
   3.7385473  25.3657950  37.0986667  71.7323933  57.5293771  55.4905785
  71.7652893  58.3475327  54.9948254  72.6491378  57.2727409  55.5903248
  27.0405549  45.7944241  54.8830026  26.5147714  46.1361058  55.6062157
  27.5307398  46.5523058  54.5643085   6.3929706  28.6277375   6.1642450
   6.3698980  27.9553300   5.4833869   5.9590557  28.2230332   6.9153536
  53.8563873  18.9116043  31.3807578  54.0724522  18.3313156  32.1106980
  53.1557730  19.4699094  31.7179028  17.4757843   2.0951532  73.3944688
  16.6959177   1.5868308  73.6172879  17.2408422   2.9988826  73.6049613
  87.0146429  60.0693223  64.7520859  86.5096229  60.8361479  65.0225764
  86.3628540  59.4684414  64.3910523   6.8628211   5.5049815  45.4087740
   6.1312208   5.0032094  45.7682425   6.6175094   5.6669584  44.4978308
  24.5850871  18.8443290  84.4658175  24.7804799  19.6727674  84.9037026
  23.6359272  18.8565740  84.3426211  52.0224665  11.3958873  86.9692346
  51.3884426  10.8555525  86.4977648  52.5849958  11.7576279  86.2844454
   1.8132012  36.2390421  20.9627961   1.6931537  37.1029435  20.5684678
   2.5418100  36.3534133  21.5729438  34.1191210  64.3519875  62.3582343
  33.4341738  63.9131358  61.8537659  33.8107191  65.2537938  62.4469224
  15.1798825   4.2260680   6.9255576  14.7377058   3.4172341   7.1834321
  16.0728545   4.1265674   7.2556069  49.5496021   0.9903172   4.0316773
  49.8234005   0.9360844   4.9472783  50.0990877   0.3504419   3.5790662
  18.9402996  59.9966239  66.0224041  19.1352483  59.3765687  65.3197247
  19.0792258  59.4977527  66.8274252  40.0535505  43.4100577  31.5715482
  40.1515747  42.5792704  32.0367530  40.1353065  44.0772525  32.2530164
  48.3762649  35.2333458  79.0666146  48.2028471  34.3044199  79.2191099
  47.6962099  35.5059842  78.4506394  68.0253093   7.0441493  69.7223092
  67.9680805   6.8736358  70.6624591  68.8803949   7.4582020  69.6056007
  62.3870031  16.0653384  17.3330332  62.5896044  15.1463647  17.5081670
  61.4328439  16.1154104  17.3905216  32.8277974   6.4699488  46.0952002
  32.6819680   6.6549419  45.1674377  33.2662802   7.2524237  46.4294123
  81.4122942  52.3041407  72.0944513  81.5014115  52.7339884  71.2438510
  80.4673664  52.2474398  72.2363258  10.3572230  34.1331629  68.6261569
  11.3139961  34.1113335  68.6446098  10.1116139  33.3969723  68.0658611
  61.9196673  35.4111103  71.3053477  62.7492638  35.6356545  70.8839438
  61.3994998  36.2129050  71.2525953  70.3101066  59.0309344  46.3591938
  71.0099752  58.4734439  46.6992233  70.7665830  59.7699443  45.9570429
  84.5385931   7.1791007  22.4639620  84.7040794   8.1011572  22.2673458
  84.5317025   7.1355907  23.4201478  54.0509914  34.1197314  41.7186156
  53.1601900  34.3870276  41.9450165  54.2392317  33.3897545  42.3084726
  40.2952281  46.7951193  77.9599942  40.3241401  45.8648390  77.7364444
  40.7423349  46.8525423  78.8044052  23.1878550  52.7239603  31.8675879
  23.4048710  52.1112150  31.1649648  23.6410575  53.5325281  31.6287212
  55.3990523  51.8598467  57.4701020  55.1849451  52.7666404  57.6894536
  55.5815038  51.4460300  58.3137246  38.4721865   0.6408575  84.0244874
  38.2390226  -0.2170953  84.3791467  38.1714981   1.2634393  84.6864619
  67.2628377  37.4272974  35.0192185  67.7074695  37.1458350  35.8187893
  67.8113778  37.0927696  34.3096928  27.0563226  37.6605534  86.8521011
  27.6129671  37.3243239  86.1497277  26.1887571  37.7360862  86.4547893
  18.3346487  53.3686503  77.0685711  17.8141983  53.4411573  76.2685050
  18.2155043  52.4616825  77.3504326  47.1104784  43.8069319  89.0129146
  47.2109833  43.8964109  88.0652205  46.7016753  42.9494457  89.1305126
  51.4248113  22.7033397  32.7487698  50.7618590  23.1684427  33.2590691
  52.1703689  22.6207405  33.3433730  17.0245784   7.1731514  65.3856812
  17.2522311   7.2794730  64.4620462  17.2137453   6.2540701  65.5747243
   0.7733324  56.2177508  58.9615297   1.3054314  56.2172009  58.1658525
   1.3485454  56.5825004  59.6340768  72.5990448  55.9013753  52.5179381
  73.1102449  56.2604263  53.2431889  71.7474244  56.3326317  52.5885960
   4.4637748  47.1147545  71.1051641   4.4144308  47.6141781  70.2900732
   3.6299294  47.2870503  71.5424829  34.7150580  52.1926667  20.0881367
  35.0691045  52.6385808  19.3186931  34.9849600  52.7385557  20.8266419
  60.9342818  63.5045344  40.1724582  60.4820846  63.2770328  40.9848575
  60.8678594  64.4580009  40.1202900  11.3954037  63.5341868  54.5816213
  11.7474495  63.5926666  53.6934345  11.3508335  64.4419912  54.8818488
  29.7096410  69.3551883  53.6349887  29.0447370  69.9592415  53.9655251
  30.2687009  69.1771811  54.3912938  70.7357892  16.6455234  51.9867180
  70.2589066  15.8701168  52.2826225  71.4553868  16.2976421  51.4600398
  67.3791311  46.2530303  78.1969872  66.9946700  47.1287482  78.1577473
  68.2397176  46.3868461  78.5941220  16.8465673  66.4282094  38.8546700
  17.2619886  65.6520466  38.4788664  17.4174067  67.1528342  38.5991449
  85.4583090  48.9754096  61.5799259  84.5841103  49.0751641  61.2030206
  85.6870649  49.8517808  61.8895647  69.0236494  57.3565433   2.3556762
  68.1093509  57.0744176   2.3820436  68.9785634  58.3120634   2.3213176
  29.9487187   5.9654414  84.9420157  30.5159858   6.7364082  84.9349448
  30.5026611   5.2636251  85.2838248  67.5541511  29.1215059  30.3908655
  66.7269334  29.2561091  30.8532773  67.3013784  29.0154390  29.4737572
  71.5460378  18.9011048  32.6839398  71.1298273  18.9455947  31.8231139
  71.9055358  18.0152098  32.7306629  51.3764687  18.3751931  15.5144939
  51.0232337  18.4410374  16.4016926  52.0008722  19.0979151  15.4510508
  85.5396735  66.0870836   9.1028809  84.9377613  65.4628302   9.5081477
  85.9528171  65.5952545   8.3931991   4.2385568  31.5406835  11.5839701
   4.1231073  31.3151242  12.5070228   5.1716810  31.7369056  11.5002564
  76.6595016  42.3999498  70.6071631  76.8460403  43.3370054  70.6651455
  77.1253569  42.1111079  69.8224460  33.6355704  40.1732194  15.7322347
  33.5671123  39.5621148  16.4657854  32.7363800  40.4619912  15.5763523
  21.9362006  43.2710928  30.9125365  22.7034901  43.5957757  31.3837898
  22.2959407  42.7001177  30.2337093  17.8685929  59.2056659   9.3906779
  18.0627817  59.3405497   8.4631388  17.2923899  59.9338145   9.6231036
  26.3848098  23.6141421  71.2560186  26.3281969  22.6587242  71.2702798
  27.2750091  23.8057565  71.5510797  50.1878478   7.3352959  56.6413089
  50.2084141   6.5330159  56.1196234  50.6646044   7.9762216  56.1139103
  75.9148365  68.0171195  22.2874193  75.3620567  67.5089440  22.8810725
  75.3340552  68.6939459  21.9398120  30.5243427  66.9200100  72.9308508
  31.2524889  67.5403264  72.8956012  30.0465255  67.1564749  73.7258394
  21.2847366  43.6386929   3.1409763  20.5146400  43.7405974   3.7002603
  22.0273451  43.7853239   3.7268635  52.1878448  57.8427084  73.6643510
  51.5972128  58.2686603  74.2856004  52.0456926  56.9062229  73.8022627
  38.0498143  39.2515689  80.9475479  38.5099981  39.7471240  80.2701353
  37.1505809  39.1849130  80.6263499  47.4165121  55.0516238  36.3643236
  47.5532022  54.6323801  37.2139014  46.5166075  54.8265697  36.1282003
  50.4287822  68.5575615  16.0905492  50.7227559  68.3597025  16.9797416
  49.5850449  68.9938728  16.2087509  59.0585629  67.3888161  28.8835685
  58.9655054  67.6263121  27.9609809  60.0037716  67.3794471  29.0343149
  28.1869691  18.7885067  20.8951046  28.4610582  19.5229228  21.4444134
  28.9780473  18.2600244  20.7895890  65.1951652  68.0979740  76.2866485
  64.9939173  67.7922131  75.4022044  66.1089453  68.3792674  76.2406939
  12.6306287  46.6614185  26.7639743  13.1857604  46.4195008  26.0226670
  13.2410655  46.9948823  27.4215461   5.5756200  26.2011295  58.0432419
   4.6977829  25.9275629  57.7771684   6.0283548  25.3838775  58.2514780
  73.6432755  54.4989831  15.3549091  74.0299640  55.3472042  15.5722220
  74.2706562  53.8573547  15.6879830  57.9746888   9.2375001  31.9231743
  57.7804627   8.9072232  31.0460054  57.7168827  10.1588887  31.8946962
  31.8477910  68.3310780  35.0184923  31.4951807  68.6324343  34.1811858
  31.2408414  67.6472763  35.3017928  30.0786745  64.6563011  60.3215123
  29.1818165  64.8789766  60.0719261  30.4976388  65.5006978  60.4879302
  65.5093337  55.5622386  79.2649546  66.3785579  55.4667299  79.6542608
  65.4585361  56.4850663  79.0158754  69.5281232  11.6186079  53.2287781
  70.3453254  12.0624775  53.4554766  68.8430123  12.1717394  53.6041451
  27.0911559  47.9643857  25.7805904  26.5340000  48.1121742  26.5447681
  26.9956391  48.7600195  25.2570683  14.8043884  54.7743897  77.3880395
  14.4115463  53.9283312  77.6027297  15.6819636  54.7343450  77.7681578
  52.2481541  11.2518810  28.2436209  53.0261881  11.7960796  28.3650408
  52.4326658  10.4556491  28.7418197  41.2159602  21.6851454  73.8298824
  40.2671022  21.7074679  73.9539868  41.4460874  22.5803213  73.5810181
  83.0172851   2.9476689  82.5935356  82.1113758   2.6415802  82.6367790
  83.0049345   3.6398307  81.9324824  34.5937064  16.9851039  79.0440939
  35.1753055  17.5460850  79.5571969  34.9386313  17.0342722  78.1525553
   2.1979143  12.2099036  79.3764243   2.5042697  11.4971024  78.8158061
   2.7462889  12.9565927  79.1356495   1.5253122  34.4979669  88.1020857
   1.6320454  35.0366370  88.8860974   0.8984763  34.9807119  87.5633223
  10.5279999  65.7080348  87.5497620   9.8511626  66.3676352  87.7015858
  10.7271910  65.7797240  86.6162657  59.8536146  27.0517027  26.0950171
  60.2975804  26.6409317  25.3531321  58.9658229  27.2203372  25.7793903
  61.7026292   3.4077345  41.8940124  61.5504892   2.5109731  42.1921807
  62.3370447   3.3192596  41.1827312  80.8876560  55.1611352  16.5832507
  81.1199463  55.1522011  15.6547071  79.9410905  55.3031535  16.5919889
  29.9268494  69.9689965  83.7749658  29.9317040  70.1099706  84.7217153
  29.1229494  69.4761817  83.6103141  50.7956027   3.6567091  22.7084112
  50.2367912   4.1235212  23.3297388  50.2051216   3.4028072  21.9991174
  81.9463709  13.6699058  56.1223207  82.3793750  13.9819150  55.3277205
  81.2105277  14.2696006  56.2453357  51.7110207  43.2697895  85.6863875
  51.3141988  43.0465155  86.5283572  51.3595808  42.6211674  85.0764604
  74.6156115   2.6923305  78.5651572  73.9989667   2.8251606  79.2851136
  74.3828893   1.8364219  78.2053061   7.2543620  47.4165255  52.2019717
   8.0230238  47.4589417  52.7708229   7.3219974  48.1952557  51.6494895
  76.8943049  41.2936398  75.2688127  76.7933595  40.7955587  74.4576672
  77.8007748  41.6005552  75.2501823  35.5602141  57.7927751  19.7463375
  35.7140049  57.6699729  20.6830872  34.6112558  57.8925463  19.6704715
  56.3895873  49.0139019   4.6895074  55.5841533  49.1793934   5.1795284
  56.3142604  48.1029157   4.4054972  41.3370622  68.9550798  73.9820378
  41.7472554  68.1985441  74.4011166  41.7268056  68.9854386  73.1083043
  12.0676617  58.1923720  50.5237925  11.2955394  58.0467056  49.9771296
  12.6089855  57.4151124  50.3857057  51.6074153  69.6415700  21.1743564
  51.6803648  69.5525418  22.1246112  51.3799140  70.5610960  21.0367083
  76.1104947  27.2702620  36.6196743  77.0145760  27.3326785  36.9278513
  75.8290511  26.3929240  36.8790953   6.8611018  62.8905685  17.4437083
   7.3119363  62.3711244  18.1094094   6.0579025  62.4024751  17.2624140
  65.3860290   2.7409920  46.0225954  65.0411998   3.3274459  46.6959426
  65.0340842   3.0855124  45.2018199  69.4629895  35.2794626  59.4119867
  69.6718104  36.2087492  59.3168436  69.7549299  35.0576818  60.2961903
   5.4084504  65.2925999  18.1704508   4.5219939  65.0932784  18.4716113
   5.6482868  64.5462634  17.6211857  68.4678008  21.8907647  47.1683718
  68.5602083  22.7087804  47.6567804  68.4040842  22.1640909  46.2532407
  83.3380519  42.0986789  88.7639775  83.9173809  42.4503932  89.4399263
  82.7527126  42.8247978  88.5486609   5.4209963  25.8972204  71.1631328
   5.2656399  25.0200675  70.8128485   5.4470657  26.4623232  70.3909857
  69.7684378   8.7425179  50.3513925  69.3360956   8.8738180  51.1952363
  69.0848722   8.9119587  49.7031180   3.9761179  53.4500696  79.9765764
   4.8576278  53.0791078  80.0160673   3.4171593  52.7134955  79.7290776
  17.2377765   2.2765118  20.7135228  18.0763416   2.7337249  20.7767421
  17.2805602   1.8122005  19.8775704  12.7388152  51.0120994   0.2739265
  12.0209476  51.6319725   0.1448710  13.3929868  51.5033096   0.7709214
  70.7013600  27.3940397   2.0590115  70.9505526  28.0336224   2.7261463
  69.7474618  27.3434023   2.1202142  13.1168391   8.2204232  75.7149453
  13.2152426   9.1058733  75.3649073  12.1999863   7.9989612  75.5519505
  44.9818346  64.1902228  32.9418075  45.4921333  63.8777434  33.6889245
  44.1937089  64.5686477  33.3315308  44.5860405  17.2374379  79.9152307
  45.4907417  16.9561973  80.0518003  44.0574533  16.4981545  80.2157093
  53.8476146  48.4302569  56.4541238  54.1467289  49.3041361  56.2029312
  53.7624365  47.9588554  55.6254157   9.2323367  53.1465942  46.5081987
   9.2487548  52.4790446  45.8223856  10.1535645  53.2898359  46.7251158
  40.9091244  60.9809485  16.3129739  40.8032420  60.9993023  17.2641227
  41.3242764  60.1371448  16.1344357  76.6564014  55.5738906  86.1828275
  76.7465173  55.0387549  85.3943221  77.5070526  56.0017994  86.2803901
  46.0331502  55.0689569  63.4249095  46.8111985  55.4468015  63.8349171
  45.3156213  55.2992751  64.0151109  84.1937989  63.1085951  28.0970783
  83.3697975  62.7673402  27.7495173  84.4274490  63.8215901  27.5027067
  29.9038091  44.7007714  29.5373428  29.4053826  43.9167109  29.7676731
  29.8130606  44.7717124  28.5870987  47.2852265  25.8161542  67.9521055
  47.6942543  24.9742061  68.1522341  46.4245002  25.7692187  68.3682533
   6.0721661  -0.2127382  11.4482262   6.2790924   0.5986015  11.9120596
   5.8284555   0.0706284  10.5670109  66.6531404  14.7937556  41.6365724
  66.0343973  15.3712484  41.1894809  66.3018843  13.9140059  41.4991261
  81.5168490  48.0154019  27.9722643  81.3111445  48.6960849  28.6130359
  81.7017339  47.2381654  28.4994766  58.6373629  31.9041834  80.0720643
  59.0338276  31.7503063  80.9296011  57.7665045  32.2490931  80.2692310
  13.6376658  66.7076087  15.2520240  14.3299284  67.1782904  14.7878439
  13.2377817  66.1502745  14.5844141  22.7928216  40.9517654  75.9376556
  22.6375912  40.1276659  76.3991698  21.9829626  41.4483086  76.0551507
  71.5096646  66.1288759  72.8377363  71.3369183  66.1098167  71.8964461
  70.6720342  65.8985576  73.2396824  76.1292795  27.3475619  56.6461016
  75.2793699  27.7308245  56.8628851  76.7288287  28.0933006  56.6206763
  24.2931351  14.2404792  78.8953699  23.8605800  15.0358165  79.2061215
  24.1114951  14.2205521  77.9557733  39.3982476  13.5495370  19.3845148
  38.5771113  13.4534092  19.8669322  39.1888710  13.2624874  18.4956977
   4.1341449  42.9302559  49.8289464   4.3360235  43.3497666  50.6653002
   4.2020788  43.6350972  49.1848847  63.5553913  56.4343931  61.9666228
  63.1594970  57.0100780  62.6209059  64.1336829  55.8614973  62.4702110
  59.2850011  21.8647015  55.8143216  58.9238156  22.5955023  56.3160258
  59.0335587  22.0481397  54.9091371  79.6067051  62.1319867  46.9706989
  80.2420832  62.6407473  47.4743745  79.2909813  62.7386635  46.3010022
  19.0883361  10.1401112  15.2207402  18.6243915  10.9226452  14.9230359
  18.7560740   9.9866318  16.1052049  24.5774366  34.9781472  18.4243858
  25.1106169  34.8367204  19.2066575  24.7349792  35.8925455  18.1892516
   1.9943494  60.2391358  79.2666396   2.3378406  59.3702878  79.0584363
   2.7330544  60.8300610  79.1205091  52.3310726  69.8446401  49.6789325
  52.0802474  69.7590177  50.5987082  51.5070852  70.0085605  49.2202314
  83.8105856   3.8451597   6.0437586  84.5321406   3.7659454   5.4198072
  84.2383076   3.9963447   6.8866280  57.5469589  40.6315711  83.0004224
  57.8501876  41.5037355  83.2526396  58.3151399  40.0706392  83.1075907
  52.0716369  16.0187174  75.7317291  52.7172912  16.6284644  75.3745583
  52.2627409  15.1867233  75.2987201  16.5119194  59.2158725  48.6526855
  15.9935417  59.8897496  49.0924650  16.3773290  58.4282134  49.1796679
  21.6181821  69.5507724  49.1250531  21.2806588  68.7267197  49.4761185
  21.1021783  70.2272062  49.5636979  46.2748263  43.1138016  55.6340023
  46.1853945  43.0459220  56.5845948  45.7517486  42.3888522  55.2918476
  55.0735492  40.9701406   6.5894198  55.9870646  40.6842943   6.5930653
  54.6236114  40.3272678   6.0412388   4.4424798  55.2866965  34.8394303
   5.1965382  54.9533200  35.3257304   4.8235211  55.8299840  34.1495911
  42.7189577  62.5229572  63.9817081  42.3099158  61.6818343  64.1852486
  42.6760052  62.5855094  63.0275204  35.9273983   8.8972183  80.3095277
  35.1351470   9.4292668  80.3836504  35.6362123   8.0924490  79.8808216
  61.6100614   7.7060774   0.1837946  62.2758564   7.0245137   0.2755541
  62.0471416   8.4036611  -0.3046413  23.9253450  71.4017272   8.4419328
  24.4387206  71.3598318   7.6351353  24.4199726  70.8732652   9.0682740
  22.1644098  16.1698721  62.1560781  21.4321719  16.6186357  62.5787728
  21.7669167  15.4086181  61.7333213  42.5821220  66.7613706  75.1007709
  42.9804539  66.1928953  74.4416811  42.5919761  66.2405309  75.9038031
  79.8697087  67.2258157  25.5038050  79.1422311  67.6630810  25.9463060
  79.8590140  67.5825350  24.6156222  11.6717889  18.1023980  16.6184651
  12.0681587  17.3834162  16.1263390  11.3018325  18.6764092  15.9477378
  84.7440125  43.4185946  38.4305256  84.4562211  43.6920747  37.5595397
  84.4070415  44.0953791  39.0175904  20.7466449  43.8818713  49.0595923
  20.3206244  43.0530067  49.2780456  20.0318757  44.5177998  49.0290668
  83.4236493  21.0724416  21.0546660  83.7983290  21.7265549  21.6445667
  84.1825352  20.6272952  20.6776134  33.5442549  30.5859274  11.0551046
  32.7627449  31.1305396  10.9609154  33.2047212  29.7058189  11.2174553
  72.9958871   4.7268115  36.4702464  72.8104192   5.6326625  36.7177691
  72.6033298   4.6304375  35.6025813   0.8212639  17.4450770  55.6764116
   1.2996202  17.3010630  54.8599148  -0.0829353  17.5958446  55.4008668
  85.6502768  66.5704835  30.6456251  86.4802900  66.8565268  30.2641947
  85.6941101  65.6145068  30.6251553   5.3075215   9.8688253  59.4818954
   6.2519087   9.7284482  59.4136392   4.9204473   9.0557339  59.1574146
   3.1198348  51.2903355  54.2235028   4.0655737  51.3163905  54.0781385
   2.7568983  51.8542102  53.5404551  33.7066505  70.5056547  26.4320019
  33.1702026  70.3726294  27.2135132  33.1397721  70.9903306  25.8320269
  78.0626601  42.9229856  21.9474663  77.1318445  42.7810855  21.7751916
  78.1836330  42.6434160  22.8549013  54.4356912  25.6544758  23.0134826
  55.2717485  25.4687353  22.5860011  54.3010434  24.9159405  23.6073407
  68.4649057  57.5047493  18.1617038  68.1905229  56.6036068  18.3316689
  68.3284453  57.6234236  17.2217427  69.7695988  65.9884496  43.9832273
  68.8564420  66.2723985  43.9414001  70.0839876  66.3162159  44.8258190
   1.0455008  15.2786477  80.9784836   0.2678009  15.7663524  80.7072662
   1.7457993  15.9311075  80.9889776  50.4060270  17.9565276   3.7673825
  49.8497740  17.6955712   3.0334096  50.8947851  17.1644601   3.9909366
  31.9384729   4.9679799  26.1462040  32.8775254   5.0091167  25.9653173
  31.8568273   5.2561972  27.0553226   3.1934967   6.7859897  26.6423159
   3.0568561   6.3801088  25.7862657   2.9287341   7.6976920  26.5201215
  11.3702341  58.7823471  26.1328982  10.6627464  58.1888312  26.3847551
  11.7298977  58.4001946  25.3323776  49.4977440  61.0348648   2.4508613
  49.9671158  61.7450982   2.0132651  50.1357008  60.3232377   2.5040571
  44.4851912  34.3292590  35.5482532  44.7815845  35.1311511  35.9787783
  43.5301208  34.3699991  35.5973715  38.8237136  56.2832366  48.6237404
  39.3922670  56.3324204  47.8552615  37.9372162  56.3610701  48.2711837
  13.1328818  13.1437728  13.0164778  12.5741861  13.4756157  13.7193088
  12.6944619  12.3469497  12.7179937  83.5822014   7.9140729  71.3725610
  83.6139139   7.6590137  72.2946082  84.3107748   8.5260450  71.2681451
  24.4214908  69.8910154  42.1340654  23.5076397  69.6064923  42.1216340
  24.8400434  69.3241448  42.7819105  82.4461233  28.3795245  54.7459572
  83.0387953  27.6917360  55.0491381  83.0234007  29.0463647  54.3740609
  60.9117979  33.4942855  54.0323618  60.7769653  34.0928446  53.2976652
  61.8625922  33.4043393  54.0966394  72.8832504  31.4201817  75.8788583
  72.2901746  31.6198548  76.6031673  73.6550386  31.9614255  76.0450808
  85.7061310  57.8224090  63.8307563  86.6269858  57.5990639  63.6952011
  85.2418051  56.9904710  63.7384934  53.5240349  70.4614413  68.6589452
  54.1240338  69.7369454  68.8359731  53.0972468  70.2233285  67.8359105
  26.0446047  55.8121968  85.3770361  25.8888309  54.9480343  85.7580735
  26.2780429  56.3644286  86.1232120   9.1175985  49.0638632  15.4507562
   9.6403729  49.8651423  15.4805981   9.0499729  48.7878242  16.3647919
  10.9308111  50.6671348  37.5623934  11.5992814  50.5096541  36.8956256
  10.1006317  50.5263735  37.1071788  64.3719236  53.3764429  42.5021345
  65.0613200  52.9538813  43.0143905  64.7520875  54.2125650  42.2326772
  77.7691305  48.6226624  75.3664890  78.6648364  48.5397265  75.6936961
  77.6100988  49.5661962  75.3403217   9.8657392  50.9183883   1.5541572
   9.9823453  51.6077146   0.9003497   9.8896427  51.3778736   2.3935223
  43.9799660  40.3091104  58.5958732  44.4315296  39.4656650  58.6262389
  44.5870796  40.9209485  59.0121652  37.1597657  37.8960818  55.7540191
  37.2874954  37.0358790  56.1539792  38.0096071  38.3282747  55.8389350
   4.3376709  14.2879743  67.5819450   3.8744538  14.4353407  66.7573573
   5.2036931  13.9772568  67.3179526  75.9381648  64.0967424  75.5171680
  76.1390105  63.5811896  74.7360802  75.1199988  64.5455476  75.3040713
  18.0215233  61.5487666  42.7777331  17.4635909  61.2030915  42.0809892
  17.6480732  62.4065230  42.9802688  36.7305435  60.8208152  61.5082913
  36.9583787  59.9673026  61.8768550  35.7964715  60.9196711  61.6925977
  34.2840754  55.5876759  51.7809086  34.9235256  54.9965961  51.3834670
  34.0763760  55.1841650  52.6236849  85.3913132   3.8381679  61.0208349
  85.1128228   3.0248869  61.4418444  85.4837980   3.6096042  60.0959365
  46.2985299  31.5845916  69.7082740  46.8592949  31.2396228  69.0134567
  45.4312165  31.6456514  69.3079355  58.1324610  59.8961549  57.9014557
  57.7665999  59.5336398  57.0946346  58.9616395  59.4323534  58.0180014
  44.8916976   8.6427932  23.0546694  44.7973723   9.2493217  23.7891473
  45.0491619   7.7924438  23.4649654  85.8736294  68.5692895  76.6427656
  86.4071526  69.3629169  76.6844832  86.2033810  68.0212978  77.3549460
  65.5314396   3.9507911  62.6869250  64.5814905   4.0655332  62.6611807
  65.7940908   4.3167262  63.5315182  76.1952918  69.8151388  64.3761604
  75.6758875  69.0206703  64.4997355  75.7353534  70.4834257  64.8841773
   4.2780345  27.5165633  79.2256621   4.2426597  26.9079294  79.9635951
   3.7556679  28.2669963  79.5088852  77.0740013  38.1572060  34.5844450
  77.8836786  38.4275359  34.1513443  76.3793207  38.4283535  33.9843369
   3.8924391  32.7687838  37.0828664   4.1272933  33.2421044  37.8810161
   4.5707966  32.0994741  36.9929362  24.6845047  41.2470240   7.8949823
  24.1865436  41.4134221   7.0946209  24.5150750  40.3265178   8.0954662
  29.8745768  55.8852528  35.8671410  29.6273077  55.7986706  34.9464927
  30.7249833  56.3241309  35.8464842  28.9349451  30.9731806  27.0813324
  29.3089720  30.1552470  27.4089301  29.2032659  31.6324878  27.7212931
  18.6066896  52.5848079  10.6792547  18.6106077  53.5167153  10.8978070
  18.9352972  52.1525437  11.4675418   4.8837789  62.5117653  50.3753669
   5.2115308  62.1785005  49.5400554   3.9497778  62.3024777  50.3668530
  84.9043073  28.3002319   2.2620963  84.2964379  29.0052577   2.0392395
  85.6231862  28.7387358   2.7172438  15.1292674  36.5151861  44.0031756
  15.2271235  36.1124608  43.1403498  15.9733470  36.3722290  44.4313401
  74.4064160  16.4982739  73.8195527  73.6627936  15.9050222  73.7132037
  74.0206263  17.3086595  74.1522288  69.9088615   7.3846177  46.9731289
  70.8478178   7.5626720  46.9193749  69.4995383   8.2496635  46.9535799
  26.5510904   3.3989833  72.7938185  27.3663654   3.5248313  73.2793295
  26.1699696   2.6044362  73.1675480  66.5727017  48.0050171  44.7992720
  66.7073957  47.1309662  45.1655020  67.4563210  48.3363770  44.6391173
  41.9075555  40.2751299  27.4825542  42.5534920  40.8409169  27.0596085
  42.4147466  39.5277348  27.7993974   7.3002235  52.5441911  87.7256345
   7.1048540  52.9472321  86.8796909   7.1397876  53.2386425  88.3645628
  47.0238635  50.4186151  86.7067465  47.7702293  51.0020963  86.5699272
  46.3323182  50.9889988  87.0423943  34.0881280   0.1373920  49.5557535
  33.5371639   0.4949521  50.2520446  34.1480387   0.8428886  48.9116129
  71.5977787  15.9217802  85.9656555  71.0222378  16.3030826  86.6286735
  71.8286062  15.0611081  86.3152182  48.8317090  48.4445158  13.7196752
  48.6281489  49.3678409  13.8688923  48.0776212  47.9728122  14.0733405
  67.3388430  59.2503822  62.8163018  67.2365236  58.3761784  62.4400968
  68.2847794  59.3602936  62.9130261  60.8510364   2.3843217  34.5107462
  60.2456706   2.9602321  34.9777487  60.4600907   1.5138862  34.5864782
   8.6662035   2.2802932  31.4481551   9.3505820   2.2364721  32.1159407
   7.9087134   2.6458160  31.9051383  29.0405803  57.6408166   4.5998235
  29.8718729  57.4676070   4.1580284  28.7401741  58.4702549   4.2283130
  24.4679551  49.8240122  85.2008680  25.2580699  49.3087166  85.0383228
  24.5113498  50.5365959  84.5632371  60.3588289   5.8987211  77.9133310
  60.8022382   6.6149049  78.3679745  59.5034563   5.8381866  78.3386603
  68.8516086  43.9624446  53.4670918  68.6637098  43.6757143  52.5733851
  68.0370449  44.3674095  53.7649529  31.1138267  16.8017859  76.7130849
  30.4164949  16.3615367  77.1990281  30.8899478  17.7311495  76.7620064
   9.0981031  16.7019618  24.5253131   8.8932339  17.2315620  23.7547393
   8.8463880  15.8121293  24.2781907   3.8882661  29.6733558  59.6434554
   3.2177973  29.0806475  59.9831615   4.7146232  29.2182725  59.8055201
   0.1767012  20.7054710  87.4678935   0.6086852  19.9231012  87.1250829
   0.7687394  21.4235120  87.2439741  83.2332861  70.6411877  62.8846549
  83.6976383  70.6570335  62.0477811  83.9022360  70.8584998  63.5338955
  42.6846925  39.6338083  18.9243136  42.5188775  39.8494018  18.0065681
  42.4411404  40.4254647  19.4040993  10.7730786   5.9804696  30.2335203
  11.2663509   6.2440872  29.4567192  11.0061356   5.0613963  30.3647474
  32.4237578  68.4757975  55.0201023  32.8208985  67.6107963  54.9186916
  32.4651664  68.6496023  55.9604794  42.3464097  47.2758928  26.9273830
  42.4578120  46.7719881  27.7335477  41.7193559  47.9613207  27.1580865
   4.7401423  45.3606308  39.7813682   5.4072787  45.5175418  40.4496045
   4.3307492  46.2152609  39.6463255  69.9391545  27.0338143  56.5247315
  70.4539470  27.2995076  57.2867207  69.8247845  26.0893690  56.6304402
  35.0446584  70.3512699  82.3505458  34.7738200  70.9779506  81.6796139
  34.3034017  70.3121032  82.9548937   5.9669394  51.3008634  72.8001433
   5.9385594  52.1782913  72.4186373   6.8604070  51.2128088  73.1320977
  49.5943288  57.9542151  34.8852858  50.3399509  57.8914311  34.2883455
  49.8163017  57.3675339  35.6083108  46.2922299  28.3687366  67.5011550
  45.4370148  28.1425594  67.1355284  46.9222328  28.0168805  66.8722469
  13.6726670  11.6739925   1.1243211  12.9451411  11.3679056   1.6658456
  14.4540891  11.4843808   1.6436078  73.7924406   2.2386937  13.3838758
  74.6191920   2.5157564  13.7787810  73.2045673   2.9832007  13.5117273
  50.6599763   2.2873491  88.6908247  51.0216304   3.1558430  88.5143128
  49.8980009   2.4534706  89.2458282  49.9344340  64.8313311  51.7790106
  50.7138590  65.3227917  52.0382304  50.0164721  63.9939816  52.2354615
  74.5150239   0.8646426  87.2090843  74.1528555   0.5864020  86.3678661
  75.4448282   0.6439744  87.1542991  52.8831771   1.4131913  73.6600762
  52.1757264   0.9295918  74.0865465  52.4734978   1.8075551  72.8900945
  24.8367391  40.0095584  44.5921794  24.8351344  40.8339872  44.1058190
  24.1700098  40.1291582  45.2684928  31.8603277  30.4120423  17.1749436
  31.9394471  29.7057192  17.8160985  32.3339698  31.1456212  17.5670621
  52.9147347  38.3270726  78.5343653  53.4031995  37.6242002  78.9628562
  52.0149038  38.0031997  78.4938366   8.9155266  66.5950101  52.3371361
   9.1054196  65.8308692  52.8814348   8.1404524  66.9881642  52.7382866
  66.8699824  42.7779970   2.9550243  66.4512134  43.5268995   3.3792994
  67.7391107  43.0961804   2.7108785  24.1696938  54.3789193  39.0424764
  24.3910556  53.7212096  38.3831975  23.2515668  54.5892675  38.8721000
  36.2953890  55.5800712  68.7264739  35.3609881  55.4558865  68.8929223
  36.7295323  55.1352435  69.4544023  76.0902828  33.1246597  59.6795077
  75.8474286  32.3248441  59.2130866  76.5851946  32.8179662  60.4392663
  48.7853084  49.0349717  17.0378874  49.2144529  48.1930963  17.1905722
  48.1554071  49.1160856  17.7540415   9.6711064  57.1962216  74.1324639
  10.4151880  57.4544169  73.5884882  10.0640242  56.9212440  74.9608568
  51.3366435  59.1321885   2.8226048  51.9852444  59.4527907   3.4493128
  51.7726623  58.4057663   2.3771497   6.2376419  61.0557307  41.4333017
   7.0614627  60.5718110  41.4913788   6.2503645  61.6419477  42.1898858
  55.5798949  47.1199706   9.4311436  54.8309278  46.6222786   9.1031453
  55.9148727  46.5966555  10.1592665  50.8728655  36.4271384  44.3505899
  50.1163770  36.5970052  44.9119296  51.6068331  36.8387891  44.8067338
   9.6342271   6.0816770   0.6740622   8.8122556   6.5353303   0.4875325
   9.3808752   5.3470907   1.2330145  10.8906300  37.5844973  44.0719831
  10.9843669  38.0717407  43.2534239  10.5189893  36.7426846  43.8084183
  67.2209273  20.9055953  73.0231100  66.9598706  21.3671764  72.2262260
  66.8577314  20.0259668  72.9202789   1.4461271  31.0194073  61.0573129
   1.6532020  31.6688315  60.3853010   2.1785508  31.0685207  61.6716216
  35.4692758  59.0639084  88.3907188  36.3997390  59.2599999  88.2810911
  35.0261629  59.8906055  88.1997879  81.4453385  44.3481483   2.9360797
  81.1266159  44.1824634   2.0488389  82.1863558  43.7511766   3.0397617
  46.8250473  46.9637063  83.2550805  46.2604856  47.6057056  83.6855905
  47.6887233  47.3761054  83.2401629  38.7511395  57.1942058   6.1133709
  39.1754794  56.4597920   5.6697452  39.4736241  57.7623661   6.3806568
  23.6485229  15.9289685  13.5410250  23.7223594  14.9911226  13.3643191
  23.8628543  16.3473978  12.7072319  75.4136173  26.2526626  79.7593041
  75.7900373  27.1277789  79.6659705  76.0409619  25.7791024  80.3055746
  39.5902670  52.1935332   8.2340912  40.2297664  51.6726043   7.7483901
  38.7532218  51.9992652   7.8123720  67.6537676  42.8287466   9.2893184
  68.3626937  42.6903655   8.6612209  66.8835862  42.4456718   8.8694301
  74.5599241  67.4055473  36.4546669  74.4869451  67.8921521  37.2757161
  75.4024701  66.9555890  36.5170010  44.6638709  58.1994168  20.3782142
  45.4789183  57.8090181  20.6936795  44.3786248  57.6201524  19.6715890
  38.5710152  64.3560140  27.6285995  39.0752412  65.0019874  27.1339216
  38.2418330  63.7498432  26.9649520  42.4169380  12.4665792  83.9696886
  42.8220077  13.1933638  84.4429058  41.8162518  12.8867118  83.3541430
   2.4053741  54.5813812  46.7567104   1.8832848  53.7882518  46.6358784
   2.9234141  54.6515900  45.9548768  55.5729250  41.3694084  40.2386648
  55.2135882  42.1572971  39.8308165  55.2858083  41.4194463  41.1504170
  81.2459297  65.4876548  34.0063705  81.8861700  66.1700450  33.8047080
  81.6530721  64.6783620  33.6973201  80.6871165  33.7901197  24.6783088
  79.9303853  34.3210839  24.9266368  80.5289345  33.5612444  23.7624342
  34.3273282  68.6403227  69.3607743  34.8909355  69.3352785  69.0207521
  34.7385429  68.3802509  70.1850904   7.3562883  31.7735472  27.1181592
   6.9512380  31.8370513  27.9831061   8.2249330  31.4084631  27.2866880
  49.9505193  54.8135800  15.1556581  49.5173242  54.6432312  15.9920522
  49.3676233  55.4238412  14.7039441  71.6957571  19.3844736  37.8613862
  70.8707915  18.9376915  38.0512533  72.0143937  18.9687830  37.0601972
  13.2767415   1.5121839  61.4954663  13.6455275   0.7304409  61.9066919
  14.0367523   1.9871062  61.1592159  21.1109246  32.3418576  80.7366284
  20.7084931  33.1859633  80.9409963  20.4026097  31.8257561  80.3517114
  27.9036241  64.0670756  41.4171591  28.2883382  63.1918685  41.4644817
  28.6004017  64.6158434  41.0571777  84.0307960  16.6500251  33.3678207
  83.7352871  16.7329275  34.2744813  84.9495857  16.9175458  33.3899589
  32.3042221  51.1907274  63.7819084  32.9708782  51.6121429  63.2394967
  32.7668786  50.9465599  64.5835087  53.8657477   6.3516961  54.7828205
  54.5540547   5.7091791  54.6106660  53.6080410   6.1893026  55.6902606
  57.2099279  68.6937155  41.1000692  57.7996278  68.7557068  41.8514965
  57.4956575  67.9070178  40.6356371  54.9891376  20.6933360  53.1003862
  54.2896692  20.2067684  53.5365373  55.0926880  20.2574318  52.2545158
  26.2078238  68.1735611  16.4776925  26.1771180  68.8477226  15.7988736
  27.1332349  68.1147411  16.7151505  70.8421679   1.0435443  88.7070860
  70.3108611   0.3352583  89.0707836  70.6159466   1.0594044  87.7771375
  65.9891638  31.8038542  50.0884584  65.6096410  32.6744855  50.2076031
  66.2857376  31.5501986  50.9624919   2.6668605  20.8487117  14.6003415
   3.0662184  20.7167550  13.7404970   1.7679099  21.1157425  14.4084709
  18.2637630   7.2698590  15.1093657  18.7097755   8.1034962  15.2588774
  17.4218521   7.5142143  14.7250372  14.3881761   0.9470659  79.2597052
  13.6713823   0.4122870  78.9184573  14.0102090   1.8212488  79.3555021
  85.8577790  49.1229617  25.1814778  85.3437902  48.5898510  24.5749794
  85.5606806  48.8514280  26.0499441  63.2255253  12.8844622  41.2875049
  63.0286206  13.1403016  42.1886189  63.8192727  12.1387284  41.3745517
  51.4520744  62.9946427   3.8088647  52.1972692  63.5845780   3.9224115
  51.6795925  62.4658163   3.0441359  19.6768969   8.5126148  54.6127608
  19.2643071   7.7813897  54.1530747  20.4521512   8.7173551  54.0899854
  82.9762376  63.9138630  14.4755988  82.7500831  63.7057824  13.5690733
  83.7717906  63.4095211  14.6457943  60.1615417  70.3498265  10.7273440
  60.2054617  69.4092895  10.8996609  60.2356592  70.4227100   9.7758050
  68.4896995  43.6449936  87.2521899  68.8895631  43.9911601  88.0500055
  67.8707889  44.3229123  86.9808822  32.6656573  54.8043064  17.8090992
  33.2498106  55.0039547  17.0775684  31.8357079  55.2185282  17.5728025
  69.7727676  40.5073329  63.0917701  68.8588068  40.2295801  63.1530966
  69.8552825  40.8661390  62.2082084   4.2131095  45.2756839  19.0218854
   3.5906993  44.7755322  18.4939785   4.4603462  44.6799199  19.7291132
  85.4760255  14.5502931  64.8271844  86.3375606  14.4754830  64.4168278
  85.2322647  15.4680711  64.7067845  21.5806579  70.6222096  74.9757678
  21.4484106  69.7064118  74.7307027  21.0839127  71.1183831  74.3251620
  65.9800075  16.3657857  87.5641999  66.6992443  15.7477377  87.4340191
  66.0208306  16.9445867  86.8029150  16.0862922  58.2899898   5.2944882
  15.1913827  58.1324634   4.9935658  16.5658593  57.5005510   5.0434231
   4.5538261  51.5710804  50.8292727   5.2281764  52.1163652  51.2344245
   3.9155397  52.1958115  50.4849861  68.6302320  70.2581406  85.4507496
  68.2464668  70.5042206  84.6090842  67.9041852  70.3178762  86.0716518
  75.1696684  55.5483275  30.9421009  75.5552749  55.7191954  31.8013702
  74.2846779  55.2382334  31.1341043  58.0453878  54.1160604  79.8181787
  57.1633517  54.1930659  80.1819291  57.9541520  53.4910082  79.0990003
  24.7464791  18.8099047  69.6734716  24.3966610  17.9582669  69.9353347
  25.4460144  18.6013740  69.0542810  59.0276473  48.2769402   5.1035481
  58.9046008  47.5799675   4.4590946  58.1495345  48.6311335   5.2438938
  70.9969961   0.5094400  47.4965825  71.7799017  -0.0407853  47.4732847
  70.7701269   0.5639913  48.4249070  82.0280396  28.5487874  88.3770336
  82.2570488  29.3032698  87.8343154  81.4519184  28.0216174  87.8234923
  75.9864889  11.8834416  10.3249007  75.8669607  12.4116008   9.5356018
  75.2498877  12.1230572  10.8872484  25.3622844  26.3477003  70.6180672
  25.9326905  25.7996434  70.0790844  25.5184031  26.0478213  71.5135734
  19.3399252  42.0715616   6.8120437  18.9297047  42.5544134   6.0945444
  19.3743829  41.1663771   6.5027129  82.7714177   9.6036073  13.0336184
  82.6821226  10.5236629  12.7851111  82.1155429   9.4758927  13.7190008
  57.9686128  65.0986335  52.0347368  57.4878345  64.2760521  52.1266273
  58.7961112  64.8478246  51.6241602  10.6634932  34.2808420   5.1028534
  10.8976924  33.4012440   5.3989783  11.2764713  34.8580035   5.5582371
  14.7107679  58.7020243  19.7766157  15.4666641  58.5223692  20.3357014
  14.3223916  57.8421496  19.6153358  85.6602287  14.4163471   4.8975538
  85.9956527  14.8333749   5.6911597  84.7085777  14.4833250   4.9756962
   0.6521725  32.9014472  59.2317241   0.0132849  33.4240888  59.7163891
   0.9973555  33.4994805  58.5688239  76.2639827  56.3137819  33.4693821
  77.1815514  56.0641561  33.5788649  75.8312787  55.9877769  34.2585081
  18.7863763  68.0088777  19.4598691  19.6045731  67.7493512  19.8834631
  18.2504451  68.3618607  20.1700892   9.1269687  60.5417017  70.8127354
   9.1361324  61.4834019  70.9840498   8.3765922  60.2152151  71.3092970
  76.3509922   8.8191481  50.7698655  76.9170827   9.5030519  50.4120262
  75.8420801   8.5124992  50.0193945  70.8100620  33.0051937  31.5853481
  70.5374809  33.2351832  32.4736252  70.0526008  32.5550633  31.2113601
  51.7712652  48.3078390  82.8348881  52.2007499  49.0275346  82.3724891
  51.7212021  48.6032503  83.7439853  35.7701691  22.8902657  81.0657757
  35.2631061  22.6412708  80.2930400  36.5031887  23.3980582  80.7178377
  79.4106657  27.6576595  17.1784190  79.9076267  26.9489125  16.7698369
  79.5212520  27.5166211  18.1186906   3.9678990  49.9415757  27.4249942
   4.8566097  50.1269053  27.7284378   3.4967504  49.6726180  28.2136086
  86.2647824  21.7132897  40.6895396  85.6069106  21.4657326  40.0398074
  86.4355087  22.6391577  40.5167599  70.2024834   7.1803046  84.0699126
  70.2117171   7.4754058  83.1593842  70.5795147   7.9096940  84.5619189
   1.9683420  43.3927292  22.4578840   2.8253033  43.7898795  22.3025757
   1.7715042  43.5976441  23.3719390  17.2920331   4.9733918  25.7892748
  18.2367700   5.0175306  25.6417764  17.1325402   4.0664858  26.0506468
   0.8119290  55.4618349   4.4819583  -0.0399901  55.2918004   4.8838962
   1.2615246  56.0319707   5.1056896  59.3397866  62.8841004  55.2791861
  59.1902561  62.0678562  54.8020930  58.6463752  63.4697262  54.9751221
  41.1801314  47.1494398  89.1615556  40.3591869  47.3349831  89.6174674
  41.1007342  47.6121738  88.3274063  53.4800182   6.9404959   4.8548855
  54.4358533   6.9690150   4.8124842  53.1946133   7.1423320   3.9637974
  76.1310479  65.3060142  42.3202898  75.2234933  65.0656612  42.5068563
  76.1472067  65.4664747  41.3767734  45.4244249  58.4546044   2.1651040
  46.3288474  58.7680504   2.1632641  45.4587458  57.6269701   2.6447658
  81.3092696  67.3573951  62.9912831  82.0418644  67.6757892  63.5186938
  80.5695439  67.3338561  63.5983116  73.1121297  22.1032619   3.1514024
  73.8491027  21.8893483   2.5792629  72.5289931  21.3472249   3.0836415
  43.2535834  45.6631929  13.6152978  44.1990710  45.5718793  13.7333946
  42.9289834  44.7635209  13.5771278  35.7071842   6.6074809  41.4166509
  35.9532017   7.0705434  40.6158510  36.5412342   6.3688162  41.8211650
  24.4235597  47.2072152  17.7186179  24.7037533  46.9486765  18.5966163
  23.7493361  46.5692593  17.4848090  33.2127672  60.8036642  72.7555194
  33.5378766  60.6532475  71.8678761  32.8760552  61.6995285  72.7386651
   4.9181736  58.7658667  65.6670933   3.9646996  58.7183011  65.7367839
   5.1820229  59.3447010  66.3823319  54.3112112  46.1262629  60.5273101
  53.5233582  45.7024166  60.8677127  54.0681398  46.4116460  59.6465691
  73.2406518  44.5924308  76.3203414  74.1325197  44.4047750  76.0277857
  72.7780372  43.7595571  76.2279249  53.6873141  20.9348746  64.4022372
  54.0765948  21.6958342  63.9713859  54.2658253  20.2076572  64.1726472
  15.4426167  47.1193655  43.0135666  15.2841687  47.1900611  42.0722228
  15.5458064  48.0243863  43.3077114  45.6621679  67.7632438   3.7811390
  44.8486196  68.2675578   3.7749368  45.3846609  66.8591587   3.6333156
  51.6415353  67.7014809  38.2196764  51.1495830  68.3864771  37.7669126
  51.6960051  68.0048886  39.1258820  57.4272124  70.8724629  32.5917485
  57.0828430  70.3111732  31.8970577  58.0056805  71.4862353  32.1391007
   7.6147880   4.0647810  73.9903022   7.0379265   4.3296644  74.7067514
   7.1996595   3.2835079  73.6249085  20.6000316  42.2244589  64.1872200
  19.9815832  41.5556593  63.8931783  20.4677200  42.9551538  63.5832246
  40.9790314  70.3562816  76.2211172  41.4505006  71.1846887  76.1334229
  41.1632966  69.8884408  75.4066216  21.2238803  56.8394665  30.0077670
  21.3071563  57.6535722  29.5112503  21.1998368  56.1534504  29.3406570
  34.3074280  22.5226632   1.5784026  33.5471163  21.9866088   1.8037993
  34.1588442  23.3520532   2.0325686  82.7755991  39.1217545  75.5196204
  82.7028169  39.6180553  76.3348628  81.8916300  38.7905288  75.3611273
  49.9153593  59.3764411  52.1793278  49.6880624  59.6114312  51.2796903
  50.4906066  58.6165699  52.0903436  10.1025206  13.5642083  87.2818848
  10.1966077  13.6930098  86.3380683  10.9949983  13.4130928  87.5931395
  40.1951097  24.4420936  13.5434335  39.9670101  23.6690438  13.0271037
  41.1359693  24.5526217  13.4063258  48.0711542  59.1351936  23.8020073
  48.6718729  58.4229800  23.5826429  47.9366124  59.5982847  22.9751597
   9.5484290   3.7571186   2.1951775   8.7682801   3.4588049   1.7276217
   9.2701449   3.8215153   3.1087654  81.9573535  14.6633738  59.8942596
  81.1895323  15.1949292  60.1043340  81.7138729  13.7760725  60.1581642
  20.6369751  69.9784468  67.3914797  21.2667535  69.6836461  68.0492817
  19.7886321  69.6846511  67.7234888  24.0783047   5.8086370  86.6782122
  24.8586432   5.4968007  87.1365370  23.3483100   5.3975179  87.1411599
  80.7030281  51.8187231  45.9426179  79.9335368  52.3604881  45.7676730
  80.4455539  50.9398945  45.6640516  27.6806991  47.9136198  64.8102758
  28.0110272  47.2029408  64.2606846  27.9533297  48.7122715  64.3585458
  59.5744894  66.9462345  23.5140700  59.9155444  66.0617296  23.3815393
  59.8368191  67.4244428  22.7274749   3.4490373  18.8414815   0.7575698
   3.8737904  19.6984762   0.7946763   3.5146421  18.5027890   1.6504389
  64.9101962  19.2314936  28.9120965  64.3247643  19.4488336  28.1866555
  65.7271749  18.9666144  28.4894659  80.8188998  39.5562231  32.9667304
  81.0062002  39.0490075  33.7565929  79.8730308  39.4718158  32.8465681
  50.3099803  67.9257552  85.2308878  50.8243931  67.5312403  85.9351387
  49.4001720  67.7536372  85.4734907  26.0823833  33.6143629   2.2088192
  26.2069290  34.4380394   1.7373564  25.2478945  33.7232560   2.6648921
  66.8548491  21.3199727  79.5519668  66.6639212  21.8090520  78.7516045
  66.0356448  21.3409199  80.0466358  24.6324004  60.4522295   4.3782665
  23.9626377  60.9762800   4.8176079  24.6346316  60.7735199   3.4766018
  77.8085509  21.6033805  32.4333692  76.9771668  21.8008767  32.8646783
  78.1721163  22.4602768  32.2102532  83.0392761  44.6333015   5.3322456
  82.6966513  45.0461026   6.1249847  82.2598428  44.3936409   4.8309688
   8.5176227  14.0242147  24.1851585   8.1981988  13.5142299  24.9295480
   7.8449151  13.9142167  23.5131490  39.9788514  22.8810683  69.6205710
  40.7421199  22.3474973  69.8418288  39.3421162  22.6848804  70.3078194
  70.3487471   0.5732600  41.6529325  69.5781064   0.0745084  41.9242102
  70.4709573   0.3431254  40.7318818  55.9023395  58.0470276  66.7088453
  55.5057737  58.0265385  67.5797918  55.1625309  58.1560330  66.1113230
   0.7322527   4.8169628  41.1930576   1.6179187   4.5782484  41.4666322
   0.1601971   4.3695464  41.8165981  17.7795546  69.8964461  14.2375485
  18.4376418  70.5913368  14.2208168  18.2661566  69.1005303  14.0231463
  44.9537470  55.4282477  50.3601784  44.6385756  55.3617965  51.2615568
  44.1575394  55.4695560  49.8304813   2.2814635  58.9900478  33.0185509
   3.2224373  58.8189237  32.9796057   2.0497159  59.2578375  32.1292739
  86.2963232  15.3633660   7.7452057  87.2173849  15.2115325   7.5334893
  86.2945243  15.5545905   8.6831086  12.1464154  67.1935444  70.0492346
  12.5413991  68.0564675  69.9244003  12.1618662  67.0578492  70.9966416
   4.1134282  28.4864149  23.5060192   4.3592162  28.0986105  24.3459167
   4.8966052  28.9573899  23.2213297  72.6578571  42.6834082  72.7633640
  73.2887114  43.3832512  72.5946202  72.9214169  41.9762650  72.1745375
  80.0098159  27.7812763  83.5025267  80.8087957  27.5606653  83.0237845
  79.4625922  26.9994280  83.4284247  80.8789835  41.3146371  70.0090757
  80.7735946  41.6882217  69.1341130  80.6252852  42.0209336  70.6032257
  22.0980734  52.3646006  24.6291525  22.7021530  53.0887377  24.7933020
  22.5658123  51.5881176  24.9366038  77.0930289  31.4912798  33.6963233
  76.9088818  32.4280625  33.7653157  77.7848740  31.3352037  34.3391471
  56.7465493  66.1974332  23.4012765  56.9702284  65.4628168  23.9727118
  57.5489438  66.7172213  23.3542115  60.4929420  58.3256340  83.6217107
  60.8291719  58.2593196  82.7279637  60.3873471  59.2655583  83.7687612
  27.2104637  55.2205023  48.1191069  26.5205177  54.5635929  48.0259598
  27.5950219  55.0438612  48.9776783  20.8358269  50.3279200  31.7797174
  20.3712877  51.1437876  31.5931828  21.2739674  50.1083956  30.9574804
  72.3715221  32.4482126  36.9778132  73.2968012  32.4144471  36.7350163
  72.1268983  31.5333336  37.1170518  51.9666744  41.2741022  26.4107755
  52.6289995  41.8554618  26.0371734  51.2289545  41.3298995  25.8034141
  50.0685507  40.4614295  71.8419222  50.2817477  40.4222427  70.9095900
  49.8611158  39.5573899  72.0783857  10.0816434  30.9385409  12.3008021
  10.7339072  30.7444534  12.9739393   9.6154640  31.7056587  12.6331255
  78.6116444   3.8333241  26.5471087  77.8740911   3.3330610  26.1978467
  78.3885478   4.7465042  26.3666593   6.8735474  58.6442255  11.1324051
   6.7996348  58.9734109  12.0281761   5.9737954  58.4405436  10.8770781
   1.1288117   2.4092854  85.5489255   1.6474374   1.6068464  85.6068113
   0.2437761   2.1081516  85.3433478   0.3516857  14.7045221  76.2505573
   0.4314884  14.2731387  77.1013051  -0.5415893  15.0482690  76.2391695
  86.1377494   8.2611796  38.7955325  86.5738275   7.4095831  38.7663584
  85.6299837   8.2981490  37.9849530  76.3584807   5.7526833  33.8039211
  77.3088876   5.8604666  33.8405453  76.1987814   5.3185765  32.9659001
  67.1649896  32.8436175  33.3173879  66.8938223  33.5934515  32.7878135
  68.0851845  32.7101301  33.0901121  38.6380000  66.7819025  69.3346052
  38.6295286  66.6126082  68.3925333  38.5132083  67.7280074  69.4090662
  73.1566767  26.0830986  85.2125670  73.5894189  25.5069283  84.5824925
  72.8137057  26.8027668  84.6827743  69.4894356  70.2147387  30.7654943
  69.6325224  70.0461692  31.6968065  69.4626289  71.1690490  30.6961756
  41.2390593  53.9406912  43.3437636  41.1786818  54.8955857  43.3161409
  40.6358227  53.6427632  42.6628992  74.1107944  38.4814137   5.9975450
  74.4861954  39.0588447   5.3328049  74.8497459  38.2532985   6.5615894
  52.6459182  53.1933207  29.6765726  52.1019889  53.9187463  29.3697658
  52.0269012  52.5818971  30.0755851  35.2078803  58.3167997  52.1302737
  34.7946372  57.4533990  52.1291850  36.0688624  58.1707405  51.7383445
  78.5396453   8.5742596  23.8598447  78.3936522   8.0825296  23.0516866
  77.8487427   9.2367218  23.8652584  70.8799524   8.5242822  54.4351022
  71.3969122   9.3273290  54.4991364  71.2073941   8.0908485  53.6469722
  56.8906806  38.9379637  26.6659313  57.3342341  38.0899327  26.6842498
  56.0155810  38.7433499  26.3304348  85.6707398  23.0780273  55.7514742
  84.8778996  22.8190908  55.2818061  86.0235852  23.8074191  55.2418473
  27.9334623  46.8181897  83.3709159  27.5924609  46.4018461  82.5793302
  28.1086540  46.0906293  83.9677371  58.8157370  59.0933227  49.6402105
  58.0700656  59.6136342  49.9393458  58.5235430  58.7091840  48.8135958
  60.7980330  34.8889554  48.1910383  61.4802405  34.2265681  48.3008920
  61.1678455  35.6807258  48.5816405  20.2765859  25.0979172  78.3755477
  20.2146795  24.1804944  78.6415079  20.9654622  25.4624288  78.9312568
  43.9676143  52.4253985  14.6661885  44.6444029  52.2687796  14.0076602
  43.3170727  52.9653555  14.2173300  32.9440083  35.0899907  32.6813586
  32.5277979  35.2203585  33.5334179  32.9950649  35.9677270  32.3029355
  59.5702696  42.5945095  83.6587860  59.2985568  43.4737820  83.9220043
  60.4139198  42.4647937  84.0919835  45.1367207  28.6251333  24.5917960
  44.8188674  28.5844317  25.4937630  44.5287055  28.0744855  24.0985046
  42.7251162  51.9606169  75.5359322  43.2753233  52.6529740  75.1696733
  42.2342264  51.6232184  74.7866518  69.9899838  62.4016405  68.5052165
  69.9027959  62.5761966  67.5681144  70.3735746  61.5258609  68.5510423
  36.7957698  34.1900033  18.6943479  36.6885444  33.2640596  18.9119776
  37.6809646  34.4043127  18.9888536  41.3829152  63.8847516  15.8550571
  40.8005806  63.1252156  15.8700014  41.4170984  64.1782998  16.7654926
  58.6135876  61.4203731  13.9454170  58.5589289  60.5143589  13.6414719
  59.0424502  61.3611489  14.7991155  18.3546237  34.2019001  87.1194463
  18.3131641  33.3388186  87.5312754  17.7268405  34.7319930  87.6104877
  66.1535344  21.9257018   2.3844153  66.8200274  22.0832170   1.7156793
  65.5661739  21.2809772   1.9899921  63.3729760  60.4909574  27.6554780
  63.4436015  60.9203578  26.8029177  62.4633638  60.1963439  27.7006498
  59.8037917  12.6722037  17.5055616  59.6247656  13.4946672  17.9613415
  58.9521696  12.3955415  17.1672870  42.7356057  54.7531541   7.7389807
  43.2678647  55.5451359   7.6635021  41.9262589  54.9632038   7.2730743
  49.6359129   8.5939122  72.3684952  49.6276008   7.7126094  71.9950409
  49.7882228   8.4564265  73.3034451   7.2261392  69.9390798  85.0412779
   8.0654713  70.3945672  85.1067351   6.6908871  70.3221947  85.7362311
  27.4211139  27.0393131  72.9695999  27.8400118  26.4998511  72.2989754
  27.3134736  26.4513291  73.7172095   8.6496362  11.5095218  75.0273637
   8.4072306  11.2261350  75.9089323   9.2234268  12.2628041  75.1672277
  33.9107074  14.4398300  18.1243682  34.2269342  14.9318103  18.8821200
  34.1901356  13.5393982  18.2898200  78.5982906  38.1638785  39.6649870
  79.3113617  38.1271075  39.0274845  78.4047040  37.2471703  39.8609517
  28.9702286  46.8527941   6.9141863  29.8115812  47.1124275   7.2896169
  28.3185209  47.2057439   7.5199382  84.1150231  64.1937610  58.5433754
  83.2783016  64.5511360  58.8407171  84.6573119  64.1660461  59.3316561
  77.7018461  61.0962093  21.4604040  77.4870493  61.7510269  20.7960938
  77.5328102  61.5359599  22.2936375  63.3905646  55.8984498  66.6181008
  64.0425819  56.0988118  67.2896366  63.1273979  56.7532837  66.2771694
  77.1202149  14.4289032  23.0762485  76.5344130  14.2891726  23.8202534
  76.8425932  15.2672251  22.7069595  33.2649861  49.8402469   4.6929620
  33.0180693  49.3842192   3.8884108  34.1798391  50.0869705   4.5573029
  26.8030679  63.7619800  75.6070716  26.9746752  64.2625351  74.8094329
  25.8607225  63.5951939  75.5870897   9.9375912  59.2478156   5.9308675
  10.0873993  59.7433318   5.1257259  10.8142987  59.0872292   6.2799059
   8.5252518  42.1891786  86.3777250   8.3928532  42.8711183  87.0362541
   8.9565561  42.6385815  85.6509200  10.8239003  39.5549937  42.2061032
  11.5149789  39.7975074  41.5898003  10.0389275  39.4709659  41.6648188
   6.8486251  33.4366860  17.9936584   6.3007691  33.8656503  18.6509826
   7.6186561  33.1412606  18.4794649   2.5994770  66.7060796  80.0171042
   2.6409529  66.2215001  80.8415399   3.5015663  66.7118859  79.6970526
  54.3731870  37.1838750   8.6015817  54.9494148  36.5525222   8.1707836
  54.6815296  37.2103638   9.5073714  54.5093217  61.2513525   1.4357155
  54.4902015  60.5257787   0.8116892  55.3815644  61.6321432   1.3336227
  27.0021480  42.0577515  18.6023139  27.5745999  41.2946101  18.5239181
  26.1221673  41.7138539  18.4486902  23.4659105  48.9215337  60.8143072
  22.5646658  48.7079713  60.5726856  23.9648209  48.1336217  60.5986340
  68.5553363  54.0510657  66.6821820  68.4111722  53.4848812  65.9239712
  68.2220104  53.5468808  67.4244241  51.5813101  69.4304039  42.8357265
  52.0243866  69.9567578  43.5012088  52.1433704  68.6637943  42.7233443
  58.7417566  29.8922034   8.7223975  58.4226933  29.7751290   7.8275657
  58.4022684  29.1345486   9.1987785  45.2429889  61.9531078  81.8352482
  44.3771487  61.5607858  81.9476588  45.2918934  62.1622783  80.9024632
  66.3349775  52.1996465  47.1026255  66.9759158  52.1976568  47.8135587
  65.7894666  51.4310745  47.2697988  82.2340199  43.0932088  62.3821505
  81.2774915  43.0730379  62.4117900  82.4917969  43.4707639  63.2231231
  57.3364504  19.7812412  62.1186097  56.9548485  20.5420419  61.6806666
  57.8687967  20.1520481  62.8224147  49.1765994  23.4576982  83.5871282
  48.6674996  23.9904266  82.9761865  50.0842126  23.7217599  83.4363250
  36.5010659  55.2923078  45.2134371  36.6673204  55.6121752  44.3267150
  37.1515064  54.6025094  45.3451077  66.3266858  41.1189517  37.9065193
  67.2429301  40.9811483  37.6662308  65.8548141  41.0968515  37.0740047
  33.9875985  20.4993004  19.5140658  33.3169965  20.0512325  20.0295850
  34.3111362  19.8313118  18.9096269  11.8741170  28.2343414  25.8952173
  10.9283900  28.3505406  25.8039486  12.1989222  29.0998559  26.1434475
  83.2202895  12.4814325  39.2345438  83.8192883  11.7460631  39.3636334
  82.3478013  12.0987044  39.3268227  12.3527883  43.5873517  85.7674140
  12.2492676  44.4149544  86.2370832  13.1428162  43.7081095  85.2406264
  31.4801338  35.5473589  71.4834567  30.8833693  35.4101549  70.7477401
  32.0297707  36.2825569  71.2121359  45.5317683  70.5795120  23.2448954
  45.9141534  71.4381634  23.4258131  44.7335963  70.7716631  22.7527254
   0.4309751  39.8481998  38.3245159   0.6246063  40.1492723  39.2122625
   1.1838790  40.1317345  37.8058873  11.6116188  46.8846927  42.8084145
  11.2156728  47.6977352  43.1221348  11.7201654  46.3516675  43.5960271
  46.6481810  16.0367519   4.8521269  46.2412820  16.8245926   5.2126434
  47.0172998  16.3192918   4.0153746  78.1237064  33.9587427   0.9576704
  77.8419449  34.3560805   0.1336770  79.0508530  34.1859520   1.0284297
  49.5795906  69.2123286  81.0184887  50.1241997  69.0647411  80.2452806
  50.1870041  69.1466897  81.7553551  21.5345591  19.2541566  78.4816572
  21.0788406  20.0776072  78.6562469  20.8404091  18.5953105  78.4640703
  42.1476734  27.1399412   8.9506713  41.7847246  26.7568994   9.7492819
  41.5707744  27.8784354   8.7556184  84.9781017  22.3765834  43.4916427
  84.0917486  22.0247123  43.5740857  85.2812286  22.0647729  42.6389293
  80.3678195  19.8170972  51.0596891  80.1159664  20.1964378  50.2177256
  81.1577182  20.2956208  51.3112982  84.2173210  61.3389189  51.2919961
  83.9728920  60.4981249  50.9052768  84.6496596  61.8127056  50.5814742
  11.3514966  69.8985515  34.6623056  11.7189534  70.6900149  34.2688683
  10.4594457  69.8520542  34.3183361  56.0686592   0.0003550  17.5724051
  55.1876887  -0.2709001  17.3144452  55.9660152   0.3298378  18.4652305
  55.6767920  70.6283285  64.6517016  55.3231955  69.8291584  65.0422505
  55.4117331  71.3256050  65.2515192  79.3959422   2.0816166  85.9857972
  79.7280660   2.9687540  85.8482728  80.1458922   1.5145765  85.8061521
  65.5075678  26.9119077  39.4844729  65.0135600  27.4591343  38.8739558
  64.8402046  26.3988042  39.9400857  77.9784587  43.3773811  40.4600087
  77.1083537  43.6452573  40.1643884  77.9611390  42.4211727  40.4200423
  73.5757322  67.8578836  56.0467988  73.5608471  67.1902552  56.7325703
  72.7882343  68.3791513  56.2028719  45.3590171  58.0551778  26.2748772
  45.1030339  58.8769628  26.6936538  45.1989141  58.2014290  25.3425631
  21.5324610  25.9038657  11.9537005  21.0407115  26.4067808  12.6029236
  21.1862794  25.0144987  12.0272975  62.3813618  18.4788359   9.9604802
  62.2224030  18.3748976  10.8986490  62.0805025  19.3658978   9.7634099
  21.5746420  48.3689263   6.2168358  22.4157606  47.9576699   6.0177895
  21.7413324  49.3077841   6.1332161  74.5267307  29.2020965  75.8970083
  74.3007404  28.5799583  75.2055575  74.0305824  29.9915089  75.6804516
  68.4954760  33.9335493  42.0512991  67.7081204  33.4370695  42.2744824
  68.4465679  34.7182895  42.5972136   8.6590754  25.2454684  86.7186290
   8.9421303  26.1085098  86.4165176   9.2123749  25.0643253  87.4784176
  76.7487381  23.0473057  77.9227386  77.3401320  22.7624530  78.6194049
  75.9110768  23.1904480  78.3632674   5.3336211   8.6380649  13.9424889
   5.8001891   9.4646201  13.8185833   4.9563249   8.7051584  14.8196307
  18.5077814  46.6291187  72.5860610  19.1133298  47.2901781  72.9215359
  17.8205780  47.1330405  72.1501181  76.9802090  65.2400613  28.9992939
  77.8155139  64.8076557  28.8217466  77.1758322  65.8594814  29.7023459
  45.0210743  30.6897187  88.2264471  44.5303532  30.1027854  88.8017156
  45.9182709  30.3572942  88.2540892  61.5590577  69.1015074  18.5491661
  61.3112749  68.3799642  17.9710563  60.9203025  69.7891838  18.3612174
  26.3045651  53.1206764   2.9568554  25.6716414  53.5055796   2.3506467
  26.7178546  53.8726819   3.3810150  20.0494282  53.5736410  63.3283032
  20.9866426  53.5774655  63.1337617  19.6914075  52.8847230  62.7684415
  49.8157768  41.0314926  32.4281087  49.2020366  41.5303460  31.8889426
  49.6935636  41.3771960  33.3122948  67.7147848  58.6991197  45.6505093
  68.5822636  58.6448375  46.0514653  67.8160771  58.2691017  44.8013590
  21.8490627  40.6453027  35.7812654  21.3534324  41.4073866  36.0809496
  21.1820725  39.9860179  35.5896944  79.6766371  71.3986019  67.0300918
  79.4832962  71.5239816  66.1010433  78.9691302  71.8548029  67.4856644
  47.7864265  31.4666778  59.4514636  46.9307726  31.2459031  59.8193586
  48.0255519  32.2894455  59.8782004  14.1452021  51.3572428  60.8916532
  14.9240420  51.6045376  61.3901365  14.3743429  50.5194661  60.4893393
  84.2477554  32.3933395  52.8529278  84.4926545  31.8307467  52.1182540
  83.6373005  31.8643997  53.3665416  31.0209717  46.0937976   9.5230734
  31.5497517  45.6238655   8.8782576  30.4305956  45.4295057   9.8786070
  51.2449950  28.3996497  72.3014325  50.6949873  27.6787231  71.9948575
  51.4885146  28.8707426  71.5045627  54.2271731  57.9873736  41.8725352
  54.4712399  58.5317737  42.6210616  53.7400877  58.5766056  41.2965272
  56.0956677  11.5273468   7.5514457  56.4856761  12.3695092   7.3171640
  55.1523383  11.6894558   7.5423816  50.1909104   6.2290444  38.9028409
  49.6326788   5.5828681  39.3353516  49.5822956   6.7806772  38.4113929
  65.5220794  19.9428070  22.5132584  66.2934897  19.4558970  22.2232984
  65.3804534  19.6526604  23.4143626  77.1672257  31.3235768  82.7071182
  76.3778047  31.8617666  82.6488258  77.7286723  31.6447000  82.0015054
  55.2212583  67.2099713  21.2040061  55.5881534  66.7256405  21.9436300
  55.8611887  67.0952450  20.5014687  61.5245750  36.3884844  27.8639905
  61.1635690  36.3428756  28.7493302  62.4730829  36.3983905  27.9923121
   8.7262692  23.2371325  84.7071341   9.2877741  22.5306439  85.0262231
   8.4446440  23.6954147  85.4989021  19.0007238  28.7920865  55.5567830
  18.3883586  29.1030905  56.2235042  19.8258291  28.6718212  56.0268568
  15.2859343   4.3872547  14.4856290  15.1111224   4.4121292  15.4264020
  15.8254842   3.6062031  14.3628441  79.3592556  45.1691611  38.8094400
  78.9902439  44.6587244  39.5302150  80.1880641  45.5033830  39.1523743
  78.7596552  38.1734950  81.1777358  78.7016629  39.1053124  80.9665839
  79.3723738  38.1319684  81.9119587  85.4215582  23.3316539  76.2436846
  85.2107749  22.9664659  75.3843593  85.8503804  22.6142118  76.7101824
  26.3939591  16.6994602  79.7583614  26.8544927  16.2936682  80.4928501
  25.6048703  16.1690115  79.6479301  56.7479556  32.9615828  44.2957367
  56.8350687  32.8442712  45.2417182  55.9295912  32.5175100  44.0736761
  84.8008626   7.3817823  57.3292366  84.2051917   8.0579930  57.0065184
  85.5344908   7.8683646  57.7050811  83.2800755  41.7387808   6.3148293
  83.3556082  42.5179523   5.7639950  82.3439655  41.5390262   6.3201136
  43.5510875   4.7934777  78.4949237  43.6416962   5.3742780  79.2503660
  43.8657796   3.9447701  78.8062052   6.1080665  44.4250776  43.4606728
   5.5713958  44.9613809  44.0442782   6.8478396  44.9875178  43.2312633
   5.0917225  57.7846008  57.6286148   4.6306932  57.8718100  58.4629279
   5.5299145  56.9354417  57.6847246  45.7709674  24.0420711  65.6774548
  45.5362430  24.9582305  65.8250639  46.5287753  24.0800026  65.0939137
  42.4801122  54.5187069  22.5034369  41.5469070  54.4415988  22.7019670
  42.6990146  53.6994605  22.0594222  36.9045246  66.5785801  75.3332687
  37.4722329  67.2054045  74.8849045  36.0257697  66.9486890  75.2493580
  23.4455703  56.9518267  85.4019689  22.7750780  56.8895943  84.7216756
  24.1972145  56.4816283  85.0411694   8.3244671   6.9471319  58.3467530
   7.9035898   6.5149041  59.0899040   7.6499519   6.9671395  57.6678857
  19.9076191  58.6976005  46.7515794  19.9653893  59.6274096  46.5316945
  20.8181275  58.4136066  46.8325343  50.3434366  27.9008833  44.3442437
  50.1886996  28.5127618  43.6245960  49.5265482  27.4075990  44.4190491
  30.6026316  57.8236710  83.4870870  30.8796240  58.1872891  84.3280917
  29.9812652  57.1330626  83.7177288   1.9724718  46.1408511  11.0480719
   1.3437119  46.1947355  10.3283572   2.5626494  45.4300153  10.7978028
  82.9719034  32.0342247   0.4394123  83.5685600  32.4455952  -0.1858932
  82.3754521  32.7364636   0.6989085  31.9596379  53.1035191  60.7916326
  32.8290875  52.7333203  60.9440860  31.7550027  52.8693930  59.8863474
  76.1587948  48.8325414  36.9897121  76.4934385  48.2625055  37.6820303
  76.5044189  48.4551704  36.1807826  61.1119161  52.7349331  15.3991763
  60.3408106  52.7230901  14.8321773  61.4815240  51.8555983  15.3192254
  69.4906609  61.0872001  86.7672715  70.3924921  61.3411915  86.9632834
  68.9842849  61.8907348  86.8862138  85.6150933  46.3190789  47.7329114
  85.8459042  47.2480249  47.7287249  84.8039287  46.2715485  47.2269621
   3.2069656  60.7756549  58.7179630   3.6547636  60.5748934  57.8961335
   3.8938344  61.1247829  59.2859003  63.8746426  68.8431147  80.5297776
  64.1225536  68.2887174  79.7899022  64.2769570  69.6905523  80.3394504
  21.2055932  57.3226762  83.6628202  20.3777737  57.1776289  84.1209772
  20.9487804  57.6669588  82.8073972  65.5294374  63.7682897  10.2191801
  64.7630796  63.6031914  10.7684252  65.9870875  62.9281689  10.1877926
  16.2099440  36.6795020  77.8407770  16.0599375  36.4477750  78.7573099
  15.4229567  37.1596624  77.5832329   2.0864231  24.4542655  78.1678413
   1.2804347  24.9611555  78.2662140   2.7205733  25.0787021  77.8154717
  13.2700373  70.7755451  37.8964751  13.5346786  71.5257964  38.4287530
  12.7451621  71.1551054  37.1917256  49.2909944  34.4267538  11.8759999
  50.1623333  34.5999107  11.5196056  48.8194113  35.2526390  11.7675798
  78.4623080  25.6264778  65.7828579  78.6078966  25.4031412  66.7021819
  77.5921109  25.2792057  65.5869221  85.3338594  46.5614098  76.8065747
  85.3500050  47.3232668  76.2273121  85.4308596  46.9269908  77.6858775
  57.7549841  29.6954010   3.7717285  57.9200253  29.2671148   2.9317498
  57.7026286  30.6272503   3.5592489  30.8810680  60.5896063  77.1054098
  30.2231840  61.2646250  76.9387658  31.6452625  60.8705102  76.6020893
   3.7859540  29.2763523  51.1671345   3.6658224  28.9392857  50.2793359
   4.4071749  28.6705760  51.5713020  24.4402702  50.8620644  18.0048041
  24.7814551  51.6517324  17.5849836  25.1442237  50.2197397  17.9148031
  48.7807422  30.2494282  64.3521847  48.0152532  30.5062152  63.8380653
  49.5199284  30.3646287  63.7550545  41.1872482  61.2633942  67.2243487
  41.4220028  60.9207450  66.3619604  40.3005256  61.6061396  67.1126322
  51.9558300  28.7158254  77.3325760  52.2759843  28.8019962  78.2305224
  51.6252829  27.8189817  77.2811778  47.0020847  69.1171182  64.7651335
  46.0956481  69.0401556  65.0629279  47.4979757  68.5535498  65.3590314
  44.9250416  33.9825545  61.0466912  44.9907973  33.1085139  60.6620340
  44.2865860  33.8858623  61.7532723  63.2743884  49.0606421  72.1978665
  63.5622675  48.6332833  71.3911932  63.0447960  49.9501250  71.9289069
  85.4894860  37.2354790  39.5779582  86.2764955  36.7003357  39.6802789
  85.0350899  37.1559942  40.4166704  83.4247102   2.3327867  28.2099639
  82.7653263   1.6400472  28.1705081  83.7255032   2.4288911  27.3063493
   4.4545074  52.1623838   2.4807394   4.3447638  52.8575456   1.8319418
   5.3146514  52.3284171   2.8665075  84.7312052  19.1162890  15.3194069
  84.4871940  18.3135857  15.7802298  84.0523260  19.7466015  15.5603654
  73.3878909  62.2094577   3.0069664  73.1515176  61.7540576   3.8150322
  72.5565706  62.5395175   2.6660867   1.3352348  29.3530546  50.6977855
   2.2537595  29.5509686  50.8804715   1.3483208  28.9233706  49.8425475
  57.9326028   8.4239285  29.0938548  58.4704404   8.1466246  28.3521910
  57.1583892   7.8626608  29.0513843  60.1821766  18.9301172  76.7547976
  59.8843819  18.0966592  77.1193493  60.9896338  19.1247814  77.2305609
  71.7282514  27.2228791  30.9035010  71.2923646  26.3796401  30.7802840
  71.3841710  27.5512411  31.7341748  84.7260640  54.2865823  45.7704183
  85.3743172  54.0750078  46.4421592  84.6990730  55.2433005  45.7565044
  80.5929691  47.0060891  82.1033707  80.6172791  47.9414323  81.9014450
  79.8955902  46.6590161  81.5471020  48.3106856  59.3626234  71.4215762
  49.2187758  59.2156391  71.1570018  47.8572888  59.5849456  70.6084120
  21.9446801  56.6330280  22.8277832  21.4491239  55.8485094  22.5928654
  21.7508376  56.7700305  23.7550842  13.0349355  51.8645820  80.8484099
  13.0741360  52.6241801  81.4295344  13.1209530  51.1113077  81.4327135
  21.5315866  49.7839173  46.2197824  21.6434050  49.1275749  46.9074910
  22.3798699  50.2244396  46.1689165   2.3388759  54.0839555  40.8538368
   2.0785723  54.9743509  41.0897818   1.8056169  53.5216836  41.4157238
   1.6643116  24.3102419  68.9186866   1.3377569  23.6079707  68.3561841
   1.0060257  24.3898636  69.6090140  30.6042730  20.4008212  70.9039089
  29.6822885  20.3102237  70.6631423  30.7677785  21.3435182  70.8752715
  30.1406570  58.6988352  26.5913122  30.8626483  58.6618242  27.2186801
  30.4743774  58.2487004  25.8152702  80.9031834  29.7133518  40.9168832
  81.2984572  30.4575419  40.4628221  80.0972235  29.5371944  40.4314667
  23.0911205  30.7306482  74.1986811  22.6874769  30.3390222  74.9732344
  23.1164890  31.6682004  74.3899513  83.7999286  33.2354699  26.4081866
  83.1479312  33.0094169  27.0715350  83.4872333  34.0601702  26.0362687
   8.9039389  28.8068109  39.4605105   8.0336416  28.6727569  39.8358025
   9.4563801  29.0287926  40.2100201  84.0193579  37.7725523  79.8759113
  83.1904448  37.9471772  80.3216031  84.2666892  38.6137509  79.4919269
  47.1692086  71.0433666  62.7700546  47.1117211  70.2255052  63.2640483
  48.0510075  71.0368206  62.3977381  68.2783344  33.7207546  78.4444105
  67.9452726  34.6181117  78.4372047  69.1808028  33.8027051  78.7527395
  77.6338956  36.5169510  17.4046207  76.7852174  36.3767724  16.9847075
  77.7556961  35.7477808  17.9611938  79.5084425  18.5996149   2.4832796
  80.3344412  19.0032941   2.7497400  79.2697249  19.0536025   1.6751082
  29.1754373  66.1256603  35.4409566  28.4030896  65.6952860  35.0742295
  28.9475862  67.0552391  35.4550655  67.1898732  40.5169235  77.8461443
  67.0643296  40.2043835  78.7421295  66.4352796  41.0824430  77.6818028
   6.6922725  12.5443070  67.1542233   6.2569343  11.6934855  67.1011648
   6.7706854  12.7151132  68.0927906  12.6464224  41.4381290  87.3243910
  12.3825147  41.9404618  86.5535172  12.9946752  42.0930797  87.9293632
  34.3077247  32.3063576  13.3463501  34.3907115  31.7126290  14.0925614
  33.8473361  31.7933878  12.6821692   3.8618847   0.5446585  47.9892031
   4.6125123   0.5283784  48.5829412   3.4013139  -0.2762913  48.1628342
  75.5362936   8.5078405  33.9352278  75.7830944   7.5867737  33.8518187
  76.3642256   8.9653249  34.0817491  85.5574889  37.6775326  60.1640949
  86.3277704  38.2407082  60.2398017  85.5440845  37.4124083  59.2444421
  17.3800692  28.8393302  74.9458200  17.5052738  29.3552036  75.7423313
  18.2281669  28.4219365  74.7950071  22.9701743  60.1900276  49.9544281
  22.7597665  61.0230562  50.3763567  23.7058201  59.8445152  50.4600745
  18.0794820  64.7002644  42.7077950  19.0155355  64.7120367  42.5080523
  17.9390600  65.4809714  43.2435281  60.0354250  66.9045598  62.3507116
  60.0791257  66.9788881  63.3040203  60.8350429  66.4366666  62.1100479
  77.6839939  49.6076008  82.4931015  77.6925316  48.7061513  82.1713131
  76.7789175  49.8956955  82.3744846  17.0261203  58.1018722  20.8652030
  16.9676579  58.6270622  21.6633192  17.8648292  58.3498393  20.4762151
   4.5829261  41.2651997  66.3818989   3.9538813  40.5473672  66.3094355
   4.2746243  41.9181760  65.7535648  64.6964996  17.8763150   8.5146816
  63.9609856  18.0809252   9.0920772  65.3912585  17.5858273   9.1055782
  23.5886055   6.0425780  62.7760804  23.4593000   5.7295593  61.8807977
  24.5086961   5.8572888  62.9640511  40.4141642  12.6712844  21.8864872
  39.6336025  12.1688111  22.1198878  40.2095349  13.0478645  21.0305981
  38.9640188  38.9635909   7.9540678  38.4290053  39.4752523   8.5608586
  38.3477219  38.3558913   7.5452755   7.0524092  49.3126958  19.0383566
   7.3178198  49.7464812  19.8492939   6.3827127  48.6852445  19.3104653
  41.4804183  71.6904220  30.0693239  41.2926170  70.9275290  30.6160933
  42.2333008  71.4265206  29.5404045  49.8184848  69.0334521   2.6189690
  49.5069167  68.3722563   3.2370121  50.5091472  68.5923766   2.1243280
  20.1483535   8.8633413  87.0411814  20.1275528   8.9844725  86.0919046
  19.3698807   9.3212928  87.3581866  26.8700530  18.2018298   8.1252989
  27.1743681  19.0797388   7.8952991  26.9139015  18.1759038   9.0811425
  57.8222969   8.7705340  56.9551592  58.0212385   9.2106435  56.1287467
  57.7197852   9.4822761  57.5869396  12.3665331  36.7305159  67.1071900
  12.8644556  37.5341348  67.2571958  12.4653637  36.2325254  67.9186515
   5.9645023  53.2170140  24.4551560   6.0813614  54.0102923  23.9323890
   6.8248849  52.7975596  24.4495321  37.5540971  41.2547230  32.0064451
  37.6507831  41.9391928  32.6685513  37.9857157  41.6102859  31.2295845
  31.1321230  58.3370962  68.8002846  31.9927631  58.6090739  69.1189671
  31.0139698  57.4550346  69.1527601  61.1953755  62.6191064  13.3275572
  60.2542895  62.7940034  13.3278715  61.2708836  61.7140247  13.6298109
  69.5307895  26.9579528  10.6752697  70.0479551  26.7134854   9.9078017
  69.2339314  27.8489272  10.4901436   2.2587794  15.1787526  50.1778250
   1.7486968  14.7357590  49.4997364   2.2135435  14.5923697  50.9330340
  35.2570796  68.6021623   3.6266848  34.9513632  67.8613261   3.1033005
  36.2117602  68.5500286   3.5808707  42.2166428  45.0801473  21.2098090
  42.1489449  46.0031922  20.9656022  43.1264836  44.9717613  21.4867099
  23.2877266   5.4815886  81.2903170  22.6483374   4.8067110  81.5182503
  23.7277802   5.6832798  82.1160926  77.5574521   2.5110734  45.4874137
  76.6857775   2.7474602  45.1703385  78.1302115   2.6389562  44.7312229
  51.3102782  21.8802874  26.1036528  51.7404179  21.3314633  26.7593995
  51.9981842  22.0776681  25.4679972  40.7843773  68.4357946  66.2820616
  40.0248073  68.5170417  65.7052738  41.3523038  67.8029636  65.8424979
  84.7440223  29.9641694  42.2624396  85.3433159  29.7424543  41.5497536
  84.3432342  30.7897171  41.9902783  43.4863413  51.4342023  69.5144344
  44.3913043  51.5767440  69.2370257  43.1123817  52.3134015  69.5727007
  51.1356586  31.0725960  16.3264571  51.3953169  31.9936421  16.3044685
  50.5820142  30.9613132  15.5535885  25.8315064  42.5593184  44.2255359
  26.3533925  42.3912014  43.4409319  24.9873972  42.8626104  43.8912823
   9.4882379  65.6969169  38.3636299   9.6006998  65.0668590  37.6518637
   8.5555098  65.6558293  38.5747270  65.0585011  60.4103942  47.7070052
  64.9253616  59.9840749  48.5536205  65.8004165  60.9983138  47.8489340
  60.6121211  43.4000851  69.5915548  60.0302328  44.1065098  69.3111944
  60.7161414  43.5350492  70.5334658  66.9149262  18.4827661  50.7158363
  66.7339614  18.0153579  49.9003530  67.8074165  18.8121813  50.6101075
  46.5235827  24.7800468   7.3804101  45.8043529  25.1878276   7.8627536
  46.1485032  23.9728962   7.0281954  54.1619102  23.6701861  46.6863110
  54.3279443  24.1347379  47.5065890  54.1391790  24.3585492  46.0215769
  43.5097177  56.0865105  53.8226610  42.7354178  56.2279750  54.3673437
  43.6550905  56.9278308  53.3899037  78.3652536  51.9866888   3.0134632
  78.6894238  52.0716451   3.9100835  77.5532710  51.4870349   3.0986818
  34.7801392  65.1840576  72.7755954  35.1389855  65.5757255  71.9793182
  34.5041435  65.9311190  73.3065921  27.4315652   8.7716977  86.8156860
  27.8811134   9.5995646  86.9853171  26.6482232   8.8076640  87.3646063
  43.0005189  13.8573169  78.3897087  43.8688542  13.5928811  78.0859006
  42.6298959  13.0637090  78.7757876  50.9558142  55.5241216  53.4133648
  50.0598666  55.5302204  53.7502215  51.4147823  54.8906358  53.9649769
  46.9018540  16.4488898  81.3645541  47.7027013  16.9024623  81.1015950
  47.1720616  15.8877476  82.0914235  23.5630197   8.5619674  64.3522528
  23.0928173   9.1707987  63.7826336  23.4659412   7.7108503  63.9251613
  45.7600207  10.5035842  68.8684694  46.4439141   9.8722236  68.6450743
  45.7636993  10.5321565  69.8252358  56.6508363   0.8332635  23.6975668
  55.9604920   0.1736600  23.7652412  56.4972289   1.2548544  22.8520505
  75.2752296   0.5367689  65.6745590  74.8277575   0.8876986  66.4445259
  75.4508807   1.3036662  65.1293553   8.3342822  70.6846451  13.7784704
   8.8328279  71.4681548  14.0104110   8.9968708  70.0536989  13.4971963
  82.9020818  62.6250687  63.7248635  82.6465955  62.7731299  62.8143491
  82.6735420  63.4393194  64.1731907  45.7091619   3.6352212  81.8482368
  45.6276328   4.5883055  81.8830956  46.4378446   3.4789789  81.2475358
  75.8321007  43.7363611  45.4243516  74.9715363  43.5039006  45.0756069
  75.7692849  43.5498095  46.3610930  52.8501318  66.2888364  54.0909685
  52.4337136  66.5474893  54.9131160  52.6196436  66.9853992  53.4762270
  78.2395445   6.2078048  64.0013573  77.3588918   6.3181192  64.3598452
  78.1487292   5.5087018  63.3538703  64.6193628  19.9470063  52.9585948
  65.0679774  19.9213830  52.1134201  65.2643471  19.6135436  53.5823173
  15.4692999  13.8743584  14.7576209  14.9437010  14.3549836  14.1181078
  14.8835133  13.1914595  15.0843241  67.1729831  33.0034286  53.4942698
  67.0339773  33.8956826  53.1767923  67.0045598  33.0550139  54.4351228
   7.5236264   3.2194288  65.6501034   8.1151307   2.5196381  65.3732507
   6.6489351   2.8882898  65.4464031  26.4021117  59.8985054  84.7314444
  27.3498655  59.8862058  84.8650232  26.0351004  59.8306810  85.6128832
  77.7746942  16.0393375  40.1599255  77.0044889  15.4989410  39.9838935
  77.4195418  16.8537820  40.5159855  69.8861400  40.4680985  76.3766621
  69.7158770  40.9799352  75.5859248  69.0208663  40.1772158  76.6646215
  20.6776641  37.4194144  77.7875760  21.0941672  38.0200792  78.4056041
  19.8425909  37.8359562  77.5745563  68.0909035  57.4167442  79.3285150
  68.2942940  57.5962944  80.2464616  67.8430133  58.2677741  78.9672252
  86.2373492  10.9950798  21.1452327  86.2775236  11.2757423  22.0594791
  86.8554570  11.5679983  20.6914277  54.0580275  11.6921455  85.0263213
  54.2039395  12.6332957  84.9305208  54.9367430  11.3125599  85.0287091
  27.0322500   9.8535703  33.9421804  27.7462897  10.1206483  34.5210141
  26.8567722   8.9437623  34.1823653  79.7835757  63.5352895  72.1885413
  79.9818022  64.0903312  72.9427738  79.7495901  64.1407568  71.4479428
   7.4682721   0.9197974   2.9205379   7.5705267   1.2304559   2.0209452
   8.3616887   0.7460735   3.2169474  43.9613693  41.7848005  45.3359902
  43.1445829  41.4759295  45.7280240  44.4843386  40.9920892  45.2162252
   5.1032471  40.9650944  59.9794451   5.0569861  41.3289132  60.8635987
   5.8397205  40.3544327  60.0099597  30.6159512  55.7014471  69.5553178
  30.5423944  55.1093670  70.3038246  29.7103482  55.8925912  69.3112300
  70.0177336  42.0618684  73.7089054  69.2254068  42.5662697  73.5244348
  70.7267543  42.5836273  73.3330212   9.8085114   7.6659558  24.7281205
  10.2843371   8.3535564  24.2622586   9.0403879   8.1086176  25.0890478
   0.2011202  45.1300250  81.8060022   0.1577538  44.7708645  80.9197997
   1.0498271  45.5709896  81.8444565   3.8978020   6.8288785   3.6661864
   3.9956219   6.7805558   4.6171480   3.8751547   7.7665336   3.4750796
  79.4244721  30.6869661   0.5398056  79.4483441  31.3442002  -0.1556836
  80.3224379  30.6546430   0.8697216  38.7616746  10.1303444  80.5853361
  38.6736812  11.0831568  80.6105834  37.9016776   9.8177520  80.3044037
  71.6228341  18.5412156  87.5122552  71.8746223  18.9324249  88.3487895
  72.4382657  18.4983898  87.0127863  44.5798992  68.1849741  53.0710769
  44.7554371  67.3141997  52.7144675  44.3440922  68.7130774  52.3083622
  82.9601420   7.7802755  29.9950447  83.7720515   7.2901529  30.1247156
  82.4429227   7.5988559  30.7797759  82.4459563   4.0824103  50.2020251
  81.7280261   4.6047948  49.8443625  83.2323731   4.5936114  50.0110959
  18.7944207  61.3023546  74.5217026  19.1158713  60.4969540  74.9269571
  18.1793928  61.6629245  75.1604215  40.3452156  46.2971312   4.0657493
  40.8976954  45.6687012   4.5305865  40.9334352  47.0216570   3.8529302
   8.3136636  29.7684612  66.2819136   8.4169917  30.4175994  66.9777403
   7.9637660  30.2643904  65.5417394  71.1146305  19.3692069  11.0146931
  70.4150720  18.8777967  11.4452342  71.0804835  19.0842904  10.1015182
  78.5366014  56.8496724  54.5924884  78.2872011  56.9283298  53.6717038
  78.5645874  57.7519038  54.9109647  47.5607366  11.9445771  29.4877040
  47.0876727  11.3539565  30.0738863  48.2355150  12.3399916  30.0395675
  59.6639041  58.0394423   7.7659211  59.2583723  57.2800085   7.3475480
  59.2791783  58.0641036   8.6420544  51.6900557  57.1557975  40.1244917
  52.1110513  56.6212455  39.4512542  51.8117751  56.6604421  40.9344542
  85.3692800  61.8049718  53.7008126  85.1193938  61.8300109  52.7771450
  85.2109505  60.8993526  53.9673036  74.4901938  41.0767989  11.5721847
  73.6559717  40.6767858  11.8177346  74.9833416  41.1242352  12.3912005
  32.3127024  44.6203047  74.0414448  31.6358409  44.7264014  73.3729885
  33.0123077  44.1390712  73.5996320   1.1130373  10.6872373  73.8890195
   0.2458965  10.7126080  74.2935625   1.4329102  11.5872417  73.9515107
  78.1511108  14.7362700  74.9035325  78.5292089  14.4003421  74.0908665
  77.5814868  15.4530693  74.6243207  50.9274742  69.1520480  10.6230090
  50.9109002  68.3665840  11.1698211  50.2960476  68.9723144   9.9264258
  60.0117206  41.7032515  81.0531519  59.4244053  42.2894817  80.5760496
  59.8936938  41.9421518  81.9725148  57.4767731  57.2007547  81.0606931
  58.2146539  56.8300840  80.5765784  57.1677315  56.4826717  81.6130354
  39.8442109  49.4981189  40.9748116  39.3883929  50.1158228  40.4030566
  40.7379154  49.4701920  40.6331329  75.5994916  66.6984395   5.2277551
  75.1555009  66.2739016   4.4936763  75.1646448  66.3485818   6.0054052
  66.1158685  62.5018218  13.9548442  66.0669252  63.2570625  14.5408884
  67.0201961  62.1975517  14.0312843  74.4392411  62.3233830  69.3203980
  73.5503565  62.6777072  69.3442780  74.6310965  62.2204702  68.3882862
  34.5746625   6.5847250  79.4613282  34.1241974   6.6262400  78.6177705
  33.9680929   6.1151999  80.0339112  63.8505760  65.3334709   4.6922129
  64.5602092  65.9625396   4.8223090  64.1530462  64.5374242   5.1293094
  80.4464042  48.0265034  31.4341945  80.7327618  48.2736900  32.3134726
  80.4666499  48.8441901  30.9369919  49.7932772  55.9315206  77.2519152
  50.1347834  55.4286583  77.9913304  48.8696656  55.6853798  77.2010419
  12.4634140  62.9605374  63.3770791  13.0552644  62.2337657  63.1827911
  11.5964876  62.6346388  63.1352930  47.8092058   8.8242455  54.9190131
  48.5834900   8.4688965  55.3554108  47.9468851   9.7714907  54.9207068
  13.5969940  36.2637054  10.6234132  13.0909215  36.6952421   9.9350103
  13.5008124  36.8350787  11.3853275  45.4759074  43.9037778  34.0233762
  45.7256998  43.0006467  33.8279540  45.2509249  43.8940936  34.9537100
  36.8936508  58.8083600  63.3450809  36.1322256  58.2639530  63.1448695
  36.6248605  59.3264006  64.1037755  76.6201298  54.3854053  61.0221179
  77.3946468  54.3817443  60.4596752  75.8884538  54.2367178  60.4231404
  33.0713477  41.0107854  23.1379542  33.9524633  41.1789288  23.4720123
  32.4928488  41.2242436  23.8700789  49.6097174  12.4573133  61.3718663
  48.7089749  12.6765425  61.6102639  49.7164622  11.5476609  61.6500206
  43.8450298  53.8120660  43.6933051  42.9418741  53.7780942  43.3780474
  43.7668765  54.0387264  44.6199922   0.4740742  40.9961825  64.4175711
   0.9140851  41.0581508  63.5697609  -0.4364456  41.2260394  64.2322299
  46.2631991   0.2327401  82.7113867  45.5540362   0.7131615  82.2841690
  45.8188866  -0.3710394  83.3065914  50.4800574  49.2550421  43.3113750
  50.0612924  48.5532035  43.8096623  50.6745425  48.8616861  42.4606820
  78.0553075  50.9658089  36.7450840  77.4020018  50.3086042  36.5052811
  77.7142216  51.7848223  36.3857661  20.9440936   1.8984510  78.7690100
  21.6884158   1.5468451  79.2574663  20.7998209   2.7669524  79.1446728
  49.8955828  41.5420116  83.9564095  49.6354477  41.0895988  83.1539855
  49.5279827  41.0093141  84.6616296   1.9434599  60.3495439  -0.2459438
   2.7560402  60.1868752   0.2331012   1.5888487  61.1467472   0.1476926
  55.6087195  23.4807478  17.3736274  54.6715585  23.5308139  17.1853337
  55.9739235  22.9839896  16.6414463  56.2464106  47.1786474  77.5745364
  56.5141158  46.8341290  76.7225547  55.2997280  47.2976880  77.4980290
  80.8713273  67.6938569  14.2387117  80.7353845  67.2397995  15.0703265
  81.8215381  67.7853918  14.1683375  58.9015589  31.3133095  65.1449227
  58.6993041  30.5359353  65.6655129  58.1881980  31.9221182  65.3364953
  86.4783417   3.4415692  58.1919176  86.6380540   2.7725390  57.5262432
  86.9024134   3.1015396  58.9798104  72.0490424  26.1108543  39.2484105
  72.9042793  26.5302153  39.3429525  72.0617933  25.3949468  39.8836629
  71.5526027   4.6482703  86.3700769  70.6855025   4.4100254  86.6981141
  71.8831554   5.2828989  87.0058545  50.9921398  59.7550699  65.3458505
  51.0819961  60.6434759  65.6906585  50.2206162  59.4028219  65.7895898
  85.4354970   1.2660455  78.1112502  84.7350191   1.8803819  77.8918116
  86.2098689   1.6194184  77.6734060  38.5867895  18.3226062   2.7707101
  38.9980865  17.4905130   2.5368564  38.7548688  18.8921892   2.0200061
  27.1891146   0.2538725  32.5890716  26.8592347   0.4027787  33.4752082
  26.4877767   0.5653363  32.0169288   5.5659652   1.2220585  29.9626791
   4.9645225   0.5712564  29.6008018   5.5546648   1.0602262  30.9060318
  64.5797932  36.6283573  87.0117752  64.9690272  37.3112273  86.4654994
  65.0686668  36.6713983  87.8335914   8.7165870  62.9429757  49.4947111
   9.5573863  62.9674788  49.0378872   8.6624892  62.0555635  49.8494011
  17.9185331  19.9133224  76.9440979  18.3631396  19.4825400  76.2140407
  17.9958800  19.2945846  77.6703299   2.5326167  28.5706182  15.0900048
   2.0653135  28.6997957  15.9153367   3.0797758  27.8001896  15.2426108
  68.3755732  57.4385160  87.3627502  69.0665297  57.6087677  88.0029261
  67.9241758  58.2773463  87.2687495  59.7623861   8.9349772  77.8328625
  60.3473551   9.3603178  77.2058629  59.4352848   9.6501752  78.3785076
  42.2657467  61.6647696  23.5214604  41.9257052  60.7726258  23.5898938
  43.1222518  61.5634430  23.1062933   1.4721874   2.5213437  12.5588066
   1.8480179   1.6610033  12.7453478   0.5327651   2.4089237  12.7039940
  25.2539084  53.3768332  55.6203089  24.4236348  53.6174802  56.0313644
  25.1347107  52.4646502  55.3558358  60.4915097  10.2483093  49.7516143
  60.4490221   9.9188411  50.6493210  59.7047771  10.7850976  49.6560014
  48.9135905  24.8507609  88.2868014  49.3886436  25.6182754  88.6053574
  49.5722483  24.3395051  87.8166745  66.6616581  27.9197995  56.3849987
  67.2933819  28.3895115  56.9295420  65.9002641  27.7981619  56.9521983
  83.8995867   6.5080915  19.7043980  84.2572247   7.2023080  19.1508726
  84.4204940   6.5489648  20.5064061  50.7724105  45.1689759  73.5971830
  50.3603711  46.0138746  73.4166239  50.0948421  44.5239094  73.3946439
  63.0476500  49.2408053  89.1069428  63.5597317  49.9656621  88.7483528
  62.2944254  49.1667452  88.5209396  43.5947079  69.7773925  21.1251975
  43.1437545  69.4293308  20.3559602  42.8907071  70.0114488  21.7300383
  33.3022410  42.0374312  35.7016918  33.7387094  41.1856632  35.7164778
  32.9286457  42.1303626  36.5780605  39.5405154  42.4555450  80.5114179
  39.0745051  41.9316057  79.8598400  40.2687710  41.8999258  80.7892001
  48.1229988  63.3873103  87.5899006  48.5652767  62.5523790  87.7432364
  47.2185186  63.1460699  87.3900243  13.0650773  66.4030615  42.2547471
  13.6489368  66.4191763  41.4964067  12.7396429  65.5034735  42.2873921
  77.5287916  31.0368293  20.6976918  77.1468999  31.1420968  19.8263082
  77.5683149  31.9256237  21.0508407  30.8941190  49.5625741   8.9664688
  31.2747737  48.9024556   8.3871785  30.7110282  49.0911271   9.7791479
  30.8464137  32.3198212  87.9445288  30.6199761  31.4501250  87.6150046
  30.0424070  32.6368724  88.3559697  26.4112882  70.5927902  59.0389158
  26.7687032  69.7053476  59.0083855  25.4853199  70.4709830  59.2486241
  71.2167600  42.9244856   9.8301465  70.7689312  42.0892887   9.6955089
  72.1327778  42.7415039   9.6211946  56.1085412   7.1038096  58.6269011
  56.3253196   7.6734782  57.8888518  55.1518300   7.1050191  58.6574618
  54.0866624  56.4704099  13.1558231  54.0538317  55.9683097  13.9701016
  54.1632965  55.8081295  12.4689871  82.9739248  53.8344853  24.1110288
  82.8483667  54.1300275  23.2092961  83.7865572  53.3292524  24.0865320
  42.8016724  23.0650886   7.8264977  42.3346699  23.9003626   7.8051004
  43.3178005  23.0585328   7.0203955  46.4310331   4.8317438  73.4009909
  47.2045464   4.3682073  73.0799879  45.6962642   4.2683911  73.1581324
  34.4528831  44.0987851  16.9218500  34.6194703  44.9235801  16.4655675
  33.5078412  43.9683970  16.8435769  22.4570294  48.1428802  27.8532969
  22.0224961  48.9217976  28.2007164  22.4786607  47.5320492  28.5899444
  24.8148688   3.4750723  67.8569401  25.5086771   3.3505172  68.5045109
  25.0972983   4.2337935  67.3462470  76.6659817  18.9334712  45.6601949
  75.9779622  19.5692930  45.8566427  76.2770108  18.3545446  45.0046208
  18.1062669  17.4347029  66.9725126  18.0928389  17.5597872  66.0236157
  17.6680301  18.2103580  67.3225692  83.6957074  17.1092230  64.1865061
  83.7348253  17.6130117  64.9994628  84.4379861  17.4265331  63.6721439
  72.0136975  59.5473122  40.6991433  72.5366714  59.0277758  40.0885599
  71.8474735  60.3674474  40.2344070  68.5871729  66.0976164  60.7073776
  69.2021852  65.9808410  59.9832539  69.0942848  66.5495186  61.3818061
  19.1126847  16.5085108  87.7907507  19.4331346  15.6172633  87.9293923
  18.1592275  16.4249539  87.8037678  44.4266249  37.3926576  81.3586445
  44.0412408  36.5503644  81.1172878  44.1138222  38.0000663  80.6882410
  83.0293773   4.5861249  -0.2686502  82.6965907   4.3144849   0.5867424
  83.8095486   5.1034711  -0.0688568  17.6628070  23.0109249   8.2303246
  18.3339046  23.6934243   8.2229484  16.8587539  23.4628666   7.9744358
  57.8934842  28.1211346  22.8137019  57.1247640  28.3656375  22.2984162
  57.6177963  28.2338494  23.7233850  69.6172975  56.3238603  83.6651427
  69.6050313  57.0835842  84.2472947  69.8713363  56.6789276  82.8133074
  33.4178802  31.8993904  19.1747987  33.0628951  31.4043471  19.9131411
  32.8467185  32.6640894  19.1023995  79.0433501  46.0853804  86.1116198
  79.5376403  45.6032820  85.4486793  78.8721344  46.9373259  85.7102398
   2.0516039   7.1238062  78.1751128   2.6415759   7.5396323  77.5464210
   1.4873194   6.5650598  77.6406812  37.9647842  50.5556562  88.8250599
  37.2259818  51.1225449  88.6036100  38.2422017  50.8514847  89.6920991
  73.6279018  63.6438359  25.9902363  72.9439510  64.0215902  26.5431783
  74.4341785  64.0689726  26.2824836  26.6254741   8.0711729   7.9400000
  26.6640823   8.9638519   7.5966844  26.5133019   8.1822883   8.8840882
  36.1775232  41.2548903  72.4011582  36.1871648  41.4658647  73.3347687
  35.9002323  42.0659854  71.9751696  63.1741884  34.6068134  44.9073840
  62.8473444  35.3492291  44.3992268  62.3864276  34.1295998  45.1680212
  71.7675317  42.0083304   0.5978351  72.1590380  42.8549991   0.8125597
  72.4937187  41.3873258   0.6547341  78.9890410  13.2356981   9.1978491
  78.3604216  12.8428294   8.5922720  78.6797812  14.1339961   9.3146867
  22.0923162  57.7474897  58.0045899  22.9949008  57.7635771  58.3228885
  21.6169771  58.3237529  58.6030926  12.3782190  29.5032377  14.0551893
  12.8474670  29.4100181  13.2261246  12.8165611  30.2298028  14.4981242
  75.5108485  34.7141704   6.8062709  74.9088058  34.9169343   6.0902658
  75.9699751  33.9256159   6.5171060  36.6844071  43.0937794  21.8859274
  36.1878724  42.3143196  21.6366732  36.7790957  43.5879742  21.0716564
  65.4017337  32.5216918  74.4919787  65.2061986  32.8527253  73.6153861
  66.2924676  32.1777028  74.4249225  18.1802851  11.3239853  23.4043831
  19.0315090  10.9103937  23.5478814  18.0262333  11.8365772  24.1979506
  64.5563215  28.0641696   6.9001614  64.3945295  27.8224379   5.9882289
  63.7873439  28.5752715   7.1525107  24.6447927  41.1025589   4.1182292
  25.4457933  40.6569731   4.3940609  24.9482505  41.8117546   3.5514959
   4.5790136  63.0564518  66.6228829   5.2083589  63.3645600  67.2749762
   3.8313893  62.7514612  67.1369554  45.4370564  48.8656176  75.7764240
  45.2102450  48.8727560  74.8465114  46.2575299  48.3744598  75.8190752
  59.8422721  70.7243891  57.5374284  59.7486119  70.9969843  56.6246571
  59.0682281  71.0798324  57.9741751  27.9271004  39.3780138  17.5708952
  28.3588595  38.5492182  17.7780515  27.8132788  39.3578380  16.6207008
  19.2597876  63.9809852  45.9450773  19.7285175  64.0558609  45.1138627
  19.5771760  64.7184300  46.4662986   6.0384168  20.4463573  18.3049927
   5.5991642  20.9931561  18.9563760   6.8834670  20.8733922  18.1644115
   8.9950939  66.5822543  78.0306134   8.2815444  66.6282699  77.3942475
   8.5933481  66.8408409  78.8600500  17.8835708  26.5996161  24.3952434
  17.5937596  25.7659122  24.0248663  18.2761223  27.0660012  23.6572596
  80.6015132  60.7069643  23.9619191  80.2372207  59.8220676  23.9399952
  80.0520242  61.1767144  24.5893172  66.7790040  57.5048614  43.3803865
  66.4352622  56.6127000  43.3343293  66.0029521  58.0632490  43.3337123
  39.2419960  69.0405720  12.6022816  38.8596148  68.2188431  12.2944213
  39.7740225  69.3471079  11.8679687  51.9611409  13.8515849  29.7551950
  51.6076457  12.9675710  29.8541518  52.8771894  13.7174108  29.5121227
  60.2719377  60.3845908  37.9514665  60.9544778  60.3118933  38.6186141
  60.0846837  61.3219676  37.9015414  23.2045754  59.7489430  38.9835442
  22.5837428  59.1274104  38.6034182  23.7957731  59.9678005  38.2632536
  32.0274513  43.2902016  61.6163915  31.7845808  44.0335564  61.0644228
  31.9024089  43.6055558  62.5114602  -0.2951033  18.0834172  36.1096380
  -0.0556715  17.2231209  36.4543036   0.3695241  18.6757548  36.4612607
   0.4500326  23.4820166  32.0588412   0.8380821  24.3371494  31.8733765
   0.6207119  23.3383488  32.9896795  79.0806121  60.5389338  63.2943013
  79.2279759  60.0493078  62.4851152  78.6106774  61.3251400  63.0163210
  46.6767157  63.4947662  65.9027764  46.0234351  62.8584978  65.6118834
  47.3369128  63.4941079  65.2096882  72.5341167  71.4555452  42.9107398
  71.6904911  71.5656192  42.4720925  72.3081461  71.1753486  43.7976777
  19.7117135   2.5577574  87.4767264  19.3425055   3.0621581  88.2016383
  19.3073559   2.9321067  86.6940455  19.7200388  41.0861523  40.2078551
  20.5067944  41.0244030  40.7495510  20.0396735  40.9959957  39.3101150
  22.4527378  22.2693398  15.7567075  22.3052550  21.5241470  15.1743259
  22.8493646  22.9363945  15.1963887  34.5533930  68.2661735  17.4602335
  33.6366292  68.2374726  17.7340075  34.6740936  67.4695310  16.9434899
  55.1378990  30.1423240  88.3087125  55.9185027  30.0654194  87.7601003
  55.3249405  29.5927558  89.0697789  84.6481078  19.0062006  19.4459243
  84.1378024  19.4995538  18.8037227  85.4863001  19.4663022  19.4903328
  73.3781788  53.5135779  57.0522174  72.9365414  53.7898942  56.2491997
  73.2845758  52.5610100  57.0614192  81.6061748  64.8706868  21.7629272
  82.0274117  64.1095623  22.1622779  82.1241478  65.0464113  20.9773977
   1.8248079  22.7141081  56.4190662   2.0226507  21.7920485  56.2550656
   0.8916428  22.7974188  56.2228673  26.0970816  43.6961138  85.7630995
  25.9277329  42.9645481  85.1694966  26.9506637  44.0329183  85.4907171
  27.6204795  67.7481273  58.2297629  26.8567432  67.6460375  57.6618577
  27.4251052  67.2055435  58.9937416  85.4695276  63.6371872  38.4968796
  84.9188522  63.1433014  39.1043871  84.8568546  63.9923874  37.8529103
  46.9623516  28.7698419  73.5865203  47.0264709  27.8595868  73.2974595
  46.9091638  28.7149613  74.5406644  54.0782278  46.7284505  87.1610882
  54.3801575  46.1208030  86.4859328  53.1363677  46.5692826  87.2227083
  38.5224721  47.0263087  44.9605641  38.0493164  46.4876169  44.3263980
  39.3973140  47.1255815  44.5850265  81.4518856   3.7407437  68.6441653
  81.3488191   4.2209826  69.4657369  82.2887079   4.0445490  68.2925083
  43.9843230  44.4305135  78.4735312  43.7339941  44.5047561  77.5526320
  44.0196667  45.3346651  78.7857692  78.7978444  45.2991693  68.1174964
  79.1401597  45.2585536  67.2245225  79.5717893  45.4318564  68.6648860
  37.0084837   5.2786594  77.5930663  37.2675343   5.3934541  78.5073676
  36.5320641   6.0801754  77.3766676  41.1198592  63.7515847  80.7669527
  41.5676754  62.9937937  81.1430447  40.4162174  63.3757502  80.2379268
  65.0204574  22.2517059  21.3324202  65.4579070  21.5370711  21.7952017
  65.7329042  22.7465534  20.9277261   3.4403274  39.9292474  45.6211105
   3.2832897  39.7185626  44.7006851   4.3855959  39.8274810  45.7322096
  85.0544276   7.0592308  53.5775496  84.4455407   7.0246151  52.8397893
  84.9365524   7.9354172  53.9444756  54.3692997  70.7688662  30.5252664
  54.5090333  70.0182614  31.1025867  54.4195485  71.5292126  31.1045593
  20.4431453   4.7017543  67.6082660  19.8302516   4.0637457  67.2428372
  19.8962278   5.2851755  68.1343200  39.9707563  40.8170097  29.3275637
  40.5681203  40.7913963  30.0750475  40.5450151  40.8125064  28.5617711
  79.9542483  49.5386870  63.3618751  80.7945008  49.8535655  63.0286197
  79.8872547  48.6420111  63.0336737  37.2972245  67.6873080   2.0579311
  38.1987705  67.7295474   1.7390855  37.1596477  66.7630731   2.2655227
  83.2527818  36.5714636  60.8552267  83.8885245  37.2802100  60.7565277
  82.4296656  36.9419694  60.5367347  78.6395028  66.4877355  50.9981744
  79.4991858  66.5903109  51.4064089  78.0186299  66.5802961  51.7207955
  49.2770998  57.2984561  43.6884975  48.7056838  58.0375337  43.8970158
  50.0009361  57.6865812  43.1969167  59.4183498  57.3516387  87.6217311
  59.4300037  56.7395836  88.3575875  59.6189617  56.8112690  86.8575405
  81.5855314  19.0329114  82.3151973  80.8337344  19.3136881  81.7934717
  82.2985516  19.6074471  82.0363733  54.5574599  18.7496328  19.7235561
  54.1296633  19.0399544  18.9179909  55.3216726  19.3198191  19.8078080
  26.6416891  48.1488403  37.1339181  26.2349361  48.9577698  37.4444288
  27.4409561  48.0675710  37.6543020  85.3130019  57.0419755  75.6708077
  84.7512966  56.2774990  75.7984583  85.6450041  56.9488265  74.7778746
   5.7401403  46.8006096  79.3884826   6.2478023  46.0887415  78.9989253
   4.8398240  46.4756772  79.3975014  75.6308848  25.1310898  38.2447587
  75.3040229  24.3269687  38.6482217  75.9338208  25.6624763  38.9810263
   0.6133538  44.6223039  65.6720988   1.4240615  44.2545567  66.0238754
   0.6876489  45.5630250  65.8325852  84.2159701  58.0282756   4.5141394
  84.0639445  57.5095057   3.7242040  84.7036303  57.4437178   5.0944080
   1.8436933  71.3051094  84.7358152   0.9435654  70.9958445  84.8375830
   2.3429246  70.8061425  85.3823692  37.2317096  39.9745789  19.5769253
  37.3416100  39.3607940  20.3031634  36.3667369  40.3596399  19.7175746
  72.2276325  23.6326158  68.2117784  71.7116369  23.3519177  68.9675488
  73.0103451  24.0321464  68.5912099  13.2575357   7.9815557  14.8885595
  12.9302569   7.3266732  15.5052031  13.6134235   8.6758975  15.4430550
   0.8457025  58.0448379  14.2120920   1.5610748  57.8538042  13.6054781
   1.2570195  58.5435162  14.9180453  48.9560491  26.8601628  58.5757986
  49.1297608  25.9188778  58.5820267  49.8223181  27.2639403  58.6284624
  41.6649910  60.6781388  87.9803893  42.4922220  60.3403168  88.3236048
  41.0455621  59.9576336  88.0961989  30.6644908  65.4485955  37.7855640
  31.0263467  66.3170609  37.9618020  30.0663967  65.5829995  37.0504104
  42.6656722  56.3076577  29.8200060  42.6373251  57.1046832  30.3493250
  43.5737569  56.2495895  29.5229503  55.8398810  54.7158390  55.1773586
  55.1696455  54.1947376  54.7352393  55.4987698  55.6100100  55.1591096
  58.3082816  22.9375620  33.2292792  58.1125885  22.1424262  32.7336028
  59.2574244  23.0377622  33.1563430   2.7919076  20.1603629  20.8544188
   3.6186762  20.0417695  21.3219884   2.8512671  19.5641721  20.1079171
  85.4754524   9.9258149  13.5682579  84.6121530   9.6822648  13.2341482
  85.3371602  10.7710808  13.9956134  25.5643384  23.2646674  46.0909882
  24.9776493  23.4991299  45.3719227  25.4812032  22.3141774  46.1677280
  33.9426747  34.6556048  55.4025764  33.3191934  35.0744802  54.8092415
  34.7791345  34.6967070  54.9390277  18.2864175  37.8288986  33.4729501
  18.1854998  37.5028374  32.5786730  17.4106090  37.7604779  33.8530947
  25.4565179  17.8997404  66.5505035  26.0787900  18.1057578  67.2480464
  25.8487398  18.2737034  65.7614879  84.9534400   9.7195509  24.7316840
  85.4674534   9.0103090  25.1176864  84.1338005   9.7178451  25.2260726
  45.8322313  10.7979135  47.9954141  45.5080984  10.2772874  47.2604868
  46.2444802  10.1597207  48.5776447  45.2236340  21.6366224  12.0816903
  45.1572184  22.3489168  11.4457206  44.4065648  21.1483433  11.9806294
  22.0519516   6.0705695  65.7926661  21.3456904   5.6668168  66.2970576
  22.4011008   5.3583344  65.2568977   8.6545364  44.2149678  17.3979463
   7.8854718  44.7798236  17.3223853   8.3666370  43.4916021  17.9548016
  55.0414613  23.9989759  42.1851401  55.2980625  23.9041980  41.2678589
  55.4118300  23.2298471  42.6181524  44.2196607   4.4422259  18.5469774
  44.3115145   4.6993683  17.6295502  43.4343472   3.8952414  18.5649338
  40.1692666  26.7740420  10.8844147  39.5041425  26.2429828  10.4464444
  39.7055937  27.1845205  11.6143097  74.8347973  41.2715075  27.3682185
  75.7855806  41.2092347  27.2767578  74.6176915  42.1391479  27.0271949
  74.2472199  21.9936472  24.9390850  73.3170305  21.8473428  25.1110571
  74.4869986  22.7170041  25.5183024  27.2406270  65.9047260  60.3236855
  26.3483081  66.2323968  60.2112996  27.1513903  65.1704068  60.9311754
  16.0725310  65.2601093  22.2438876  16.7771067  65.4274846  22.8698193
  16.5234449  65.0261595  21.4326071  76.3154809  10.3413860  46.7531981
  76.4281389   9.4142024  46.5437449  76.8830395  10.4866093  47.5101785
  32.4989106  51.1775526  24.1321318  32.1964357  52.0143666  24.4849534
  32.9550243  50.7603167  24.8629576  74.2038253  48.2831016  74.1897439
  74.2779236  48.7451822  75.0247425  73.2666529  48.1149805  74.0913818
  27.8901789  71.5752072  18.3307862  26.9580698  71.4152905  18.4785399
  28.2976577  70.7133673  18.4169530  48.4341793  47.7102168  37.1689153
  48.3674728  48.4807039  37.7329469  47.6530294  47.7490091  36.6170713
  74.7610327  62.6840011  45.4565113  75.1038504  61.7903760  45.4445932
  75.1035568  63.0826230  44.6565052  69.6300159  36.2526927  27.9582614
  70.4852753  35.9928446  28.3006677  69.5459110  35.7726028  27.1344460
  51.4992438  20.0610518  32.1253640  51.2006535  19.7568860  32.9824280
  51.3991699  21.0123533  32.1606141   8.4330450  45.6972559  40.1306162
   8.7767458  46.2541861  39.4320962   7.8109153  46.2551181  40.5974954
  56.8952213  62.3021803   1.5258818  57.2384346  62.7059529   2.3230042
  57.6642310  62.1795856   0.9692613  64.5236848  14.4363181  53.0183503
  64.5493109  15.2407913  52.5002788  64.4968003  14.7371311  53.9266567
  30.1357965  27.1785371  85.5117353  30.5479383  26.3826056  85.1757829
  29.5267831  26.8683559  86.1819010  31.1450819  65.8380595  27.5631348
  32.0935205  65.7089383  27.5680092  30.8286588  65.2630679  26.8663615
  64.9343335  39.2393577   9.4436918  65.1681464  38.3158843   9.3500955
  65.3169129  39.6623916   8.6749870  54.3881424  11.7810386  67.8639830
  53.8312451  12.4627963  68.2398870  55.1177399  12.2584855  67.4690606
  64.6474972   4.4851986  71.1444147  64.6471216   5.2169275  70.5273211
  64.3314217   4.8636283  71.9648531  45.5724735  22.8019361  85.4090908
  45.4460233  22.0657266  86.0076205  45.0752929  23.5188670  85.8028592
  43.4558183  28.7150522  45.9476265  43.9969013  28.9573647  46.6991221
  43.3347941  29.5332760  45.4658641  53.4203224  10.8122635  37.4344355
  53.6199977  11.6010219  37.9386396  53.2170897  10.1504872  38.0954804
  23.4774614  46.0844514  79.4662001  23.6703677  46.5647147  78.6609882
  23.6602530  46.7096367  80.1676004  18.4860067  21.1099973  33.6056402
  17.9599687  21.6252459  32.9940565  18.8486831  21.7554516  34.2123414
  66.1655287   2.3931184   4.2354234  66.3636220   1.9607191   3.4047479
  66.7680478   1.9938392   4.8629412  65.6560903  25.4317959  13.0444485
  65.8300066  24.6542278  12.5140027  64.7026133  25.4588908  13.1243197
   4.7850222  42.2255403  28.6375748   4.6862990  43.1389954  28.9060620
   5.0549268  42.2732922  27.7204581  65.3545905  65.8604716  23.5463078
  65.7573056  66.6761422  23.8441901  64.7336658  65.6332035  24.2384304
  41.0857597  56.7457834  67.2022474  41.4623850  56.5438240  68.0587505
  41.8359478  56.9992375  66.6644642  26.7034346  12.7671684   1.3109082
  25.7633365  12.6733107   1.1571616  27.0573708  11.8883499   1.1743833
  78.2480151  28.4537512   1.7502817  78.6920229  29.1303857   1.2391509
  77.5827780  28.9281354   2.2489309  18.8661128  60.3994892  31.8263388
  19.2547001  59.5896096  32.1569851  18.0091896  60.4445659  32.2504645
  41.9028279  50.3964652  67.6912501  42.5148673  50.6716613  68.3738237
  42.3743658  50.5468335  66.8719375  20.0350249  55.0137067  78.5841631
  20.3704334  55.6425908  77.9452283  19.6330623  54.3252599  78.0543528
   7.2308450  28.8729802  30.2399767   7.3067473  27.9422422  30.4502088
   7.5484720  29.3221395  31.0233035   6.6737067  35.0477600  80.7830296
   6.4264593  35.5815578  80.0279399   7.6289955  35.1010739  80.8115386
  22.7397719   7.5947362  79.6408199  22.6012800   6.8931562  80.2770882
  21.9761230   7.5504061  79.0654008  51.8753798  44.7898168  27.8164099
  52.5808635  44.4885356  27.2439117  51.4072527  45.4429354  27.2962897
  66.5051247  55.7255587  34.2842992  66.9758081  55.3136977  35.0089091
  66.7305634  55.1951975  33.5200176  75.9358921  34.6730313  33.8547268
  75.4940101  34.4415043  33.0378013  75.2364256  34.9980445  34.4215997
  22.4918449  25.5802088  79.7737637  23.1389680  26.1674469  80.1644233
  22.9459438  25.1841903  79.0299926  48.2169688   9.9364417  26.0629342
  47.5946237  10.0557462  26.7803496  48.9382215  10.5306251  26.2702322
  59.4036788  39.4493743  77.0962174  59.1281140  40.1853774  77.6426561
  59.1774433  38.6729712  77.6083187   3.9747829   1.1917009  16.2191359
   4.4763346   0.4410109  15.9011073   4.4475372   1.9542575  15.8856052
  77.5384707  59.6805574  29.0053044  76.8541910  59.8015807  28.3470138
  78.2393237  59.2229691  28.5409233  -0.1415494  24.6688470  81.9607209
  -0.1000909  25.3420115  81.2814842   0.3393120  23.9274544  81.5928333
  39.3646369  69.4756702  85.4998725  38.4554399  69.3331482  85.2366611
  39.7699142  69.8978019  84.7423852  19.6667074  24.3836275  71.1459203
  20.1363992  24.7796717  71.8799302  18.9409810  24.9836829  70.9742041
  58.7705426  53.5462162  56.1600787  58.8403632  54.0431873  56.9751717
  57.9383743  53.8265982  55.7791407  39.2084779  10.7235347   1.6837687
  39.4265300  10.1649887   2.4298997  38.5751233  10.2129572   1.1793836
  54.1083392  17.8275339  79.0656155  55.0005915  18.0907231  78.8401183
  54.0458261  16.9181297  78.7735402  17.4359243  67.3949160  49.2192502
  17.2688889  68.2058127  49.6996433  16.7222140  67.3417343  48.5836235
  61.9556137   8.6995077  64.7262104  62.7667767   9.0961702  64.4085545
  61.4602385   9.4304676  65.0957142   8.7004980  70.2285947  33.8315194
   7.8136797  70.0765642  34.1581260   8.9746274  71.0430926  34.2530383
  46.4051723  66.1331090  77.7811848  47.1357389  65.5167092  77.7306322
  46.1418411  66.1174771  78.7013175  38.4063809  27.9511920  86.2723465
  39.1160610  28.4032056  86.7287122  38.0953181  28.5849703  85.6259745
  42.5011499  68.2355961  71.5541508  42.9893317  67.4122439  71.5554439
  42.0813515  68.2637869  70.6943797  52.9110305  43.2627209   6.7193928
  53.3756109  43.7694539   7.3854399  53.4605123  42.4917156   6.5784940
  86.1178889  22.9219337  15.6721201  86.5997136  22.0972192  15.7347517
  86.4481035  23.3321401  14.8727948   7.3405081  51.0586876  52.5117547
   7.7394829  50.6675025  53.2889452   7.5955415  50.4789571  51.7940484
  76.9469032  66.2775277  15.5072939  76.7189248  67.2046165  15.4382725
  77.8984883  66.2719352  15.6106691   7.5339908   2.8188837   0.7999018
   6.6822161   3.2524520   0.7476507   7.5445685   2.2208285   0.0526066
  56.6098167  51.7392727   5.9709317  55.7000590  52.0051719   5.8372520
  56.8575896  51.3124669   5.1507626  64.4908476  29.0423867  63.8430271
  64.7370851  28.9537178  64.7637533  64.6965284  28.1909586  63.4570251
  78.6664303  45.7668341  54.9514651  78.0487014  45.0358048  54.9669221
  78.6175539  46.1403548  55.8314226   7.1607846  64.4613351  41.5014444
   6.6489749  63.7353572  41.8581499   7.3797820  64.1854288  40.6114176
  50.9098707  13.4857413  35.8538935  50.5001184  13.1039235  36.6301345
  51.1539155  14.3713313  36.1229740  76.8079313  36.9911747   2.9409282
  77.0408815  36.9224130   3.8667996  75.9698294  37.4535720   2.9385203
  37.2457704  51.3595443  15.9023895  37.7362248  51.8303894  15.2286009
  36.5895639  50.8603487  15.4161502  24.4273111  58.1908844  27.6053380
  25.2640026  57.9913317  28.0252879  23.9399129  58.6843797  28.2649872
  72.0733714  60.4427412  26.5192076  71.3255382  60.8589329  26.9478821
  71.7184582  60.0982517  25.6996983  36.2342887  56.6613505  22.2334268
  36.6530089  55.8586750  21.9225936  36.1593149  56.5412647  23.1801001
  23.9059022   8.9313816   3.6283444  24.7851276   9.2278515   3.8635042
  24.0220163   8.4745333   2.7952544  21.1392732  12.1339055  69.3273850
  21.8106581  12.1573523  70.0092386  21.0916607  13.0346593  69.0070609
  79.3050711  18.3694972  88.2296609  79.1490621  18.5579862  87.3042611
  80.1665307  18.7463051  88.4089233  55.9412445  16.8492345  28.5457088
  56.0701818  16.2130677  29.2491992  56.3162059  16.4294537  27.7714868
  19.0985727  37.2779507  15.6038987  18.2244532  37.0376265  15.2966673
  19.0788537  38.2333677  15.6588656  33.3394419  45.7894165   6.4007751
  33.9317785  45.4530032   7.0732297  33.8794994  45.8461595   5.6125175
  14.8023728   1.2659624   7.5221673  13.8498190   1.2339323   7.4335826
  14.9616855   1.1108742   8.4531877  60.8889206  21.7502343  42.7570738
  60.8660592  22.1611203  43.6212971  60.1197491  21.1806845  42.7422340
  56.9893919  65.0626193  31.8239474  56.8402299  64.7976438  32.7315654
  57.3476259  64.2815744  31.4022022  31.1855500  33.4182675   8.7063091
  30.7219239  34.1507659   8.3004411  31.3520510  33.7077202   9.6033745
  45.4203179  57.3140994  88.3931890  44.7613997  56.6222129  88.3352941
  44.9136497  58.1257818  88.4194701  39.0284087   1.9596418  15.5954410
  39.2507539   2.7637758  15.1262257  39.1833515   1.2608533  14.9598947
  37.9988981   1.0547043  57.5623254  37.3970724   0.3352191  57.7530573
  38.8482071   0.7468045  57.8787172  51.3203278   5.9913742  11.3950961
  50.8107902   6.1565773  10.6018048  52.2049608   6.2847781  11.1769897
  47.0906511  32.2431759  85.3508064  47.9635858  32.0998483  84.9851919
  46.5198603  31.6690385  84.8401245  28.4783147   5.0714653  79.6329296
  29.2545315   5.2132611  79.0910686  28.6417391   5.5844416  80.4243711
  58.1984951  21.1155841  87.1450251  57.4599346  20.5066865  87.1430775
  58.0932584  21.6171624  87.9534657  48.6352993   3.3535333  56.9751024
  48.9004715   3.1890856  57.8800182  49.4335655   3.6574024  56.5430532
  72.2144951  58.4575573  59.0409360  71.5379729  58.6105572  59.7005878
  72.5306513  57.5725884  59.2228899  44.3978109  25.2921209  74.4304538
  44.2486159  26.1079688  74.9083290  43.9128311  24.6321900  74.9259512
  65.9000982  14.6054567  30.8841873  65.2859920  15.3378751  30.9358462
  66.7237293  15.0029545  30.6015935  25.4979775  55.6711755   9.6568978
  25.2104849  55.2642199  10.4741902  26.4538641  55.6533020   9.7037305
  22.5903638  59.6751927  53.3535496  23.3105679  59.3996328  52.7864477
  21.9599651  58.9564343  53.3064785  43.5338889  13.4060273   1.6262442
  43.2777234  12.4981845   1.7888252  43.7357932  13.7569232   2.4936187
  52.8520989  32.8218087  38.0400454  52.6013655  32.9456936  37.1246126
  52.9698576  33.7094522  38.3783556  15.0839378  18.1647493  18.5822427
  15.0350825  17.8477863  17.6803672  14.1747395  18.1772751  18.8812968
  51.8641289  65.9400847  56.7155884  51.2334807  65.9632420  57.4352955
  51.6559457  65.1356056  56.2405042  11.7867234  70.1266426  19.0000691
  11.1210784  69.5845594  19.4235007  12.5994795  69.6314755  19.1023871
  33.1963750  54.4947090  82.0145662  32.9957091  54.3488370  82.9390587
  32.3428690  54.4942760  81.5812544  65.2430332  67.3857428  86.3344712
  65.3689581  67.3454151  87.2824946  65.2207045  68.3217521  86.1354236
  63.6158594  30.0985821  54.7435755  63.4225520  30.4415162  55.6160778
  63.9524529  29.2166365  54.9020331  71.9760145  56.0575707  38.8128554
  72.3207335  55.1830384  38.6323172  71.1465511  56.0911468  38.3363106
  23.7425572  57.3004114  18.6638140  24.2215549  58.0516249  18.3138548
  24.3867240  56.8316854  19.1944522  27.0240866   0.7451955  26.1799027
  26.5908589   0.7913357  25.3276019  27.7283834   0.1088337  26.0564462
  57.8569870  62.3175577  85.8594021  57.1176158  62.1535048  85.2740401
  57.6321061  61.8527306  86.6653774  84.4089001  26.5596704  60.0420435
  83.4864535  26.7305346  60.2321210  84.4577552  26.5449756  59.0862040
   3.8238803  34.0642489  27.4807721   3.0733851  33.5431869  27.1953195
   4.1198444  33.6374715  28.2848232  37.4498989  22.8623478  71.2048126
  36.8400185  22.2852550  70.7452022  37.1649102  23.7460405  70.9722175
   3.7892846  33.9639350  58.0982946   3.8564206  33.1304014  58.5640696
   4.5036843  34.4940022  58.4516976  51.1729434  43.8674969  35.0307636
  51.7551995  43.9249700  35.7883297  51.4998757  43.1176139  34.5337498
  19.5358793  14.7459084  18.7335728  19.5618173  13.7909950  18.6727489
  18.8074384  15.0022335  18.1679730  65.2858631   0.0927336  46.4548708
  65.4730556   1.0259714  46.3535886  64.3565294   0.0102633  46.2409332
  15.1580957  65.2425845  18.8901274  15.9388425  65.1488953  19.4359191
  14.4366220  64.9645682  19.4544096  65.8666576  22.1317784  14.4668587
  66.1970799  22.0415494  15.3606773  66.6395787  22.0201247  13.9133623
   8.5781954  69.7158044  50.7391175   9.3744654  69.5536994  51.2449908
   8.1621234  68.8569027  50.6656065  31.6020669  35.1249683  63.7647254
  31.9617613  34.6343698  64.5037552  32.0061906  34.7270300  62.9936476
  75.7579313  14.6214325  72.1611842  76.2340328  15.1614876  71.5303913
  75.2373064  15.2459273  72.6663452  50.0850736  49.7505802  21.3186239
  49.8908322  49.7697252  22.2557128  50.6842398  50.4846675  21.1831706
  50.7197577  54.4211621  37.6149176  50.2781371  53.9317721  36.9208711
  50.7283735  53.8225930  38.3618264  73.3101197  26.3560239  11.1486587
  72.9558069  27.0177893  10.5547220  73.9172949  26.8383437  11.7098519
  35.6680956  52.0871755  88.0548326  35.7088830  52.5917603  88.8672133
  35.4454907  52.7319568  87.3833149   5.8340888  -0.1635576  46.0867048
   5.7932398   0.2515299  45.2251564   5.0789799   0.1882952  46.5581302
   2.8513908  39.7657520  81.8984427   3.2287639  40.3615663  81.2512745
   3.5912584  39.5113384  82.4498967  60.5082377   4.9288310  74.6732500
  59.8432312   4.6605529  75.3073044  60.7119406   4.1297619  74.1872197
  79.9642233  43.0486662  48.8964653  79.0187102  42.9333296  48.8019438
  80.0719248  43.4448796  49.7611312  68.9209622   2.9466892  56.2652191
  68.3971934   2.7506253  55.4883941  69.3984094   3.7443370  56.0371094
  30.7689262  46.5042780  80.9953191  30.5363745  47.4204709  81.1461239
  31.7073537  46.4619818  81.1791575  78.3307469  14.9908401  67.2635895
  77.5886053  14.3935612  67.1702322  78.3043563  15.5309282  66.4737540
  30.9656384  48.0010091  86.4120084  31.1035992  48.7846734  86.9440506
  30.0185612  47.9664893  86.2775281  19.4397287  39.4037604  37.0387647
  20.1250616  39.5310847  37.6947671  18.6240400  39.5820743  37.5068331
  79.3210242  67.2712579  11.9907026  79.5354658  66.4715650  11.5103507
  79.7772332  67.1779382  12.8270019  79.6109542  69.4602090  17.6938984
  78.9096791  69.7504777  17.1106411  79.2200175  69.4810461  18.5673777
  57.0457346   0.3855211  79.1355934  56.4769196   0.8309128  78.5076542
  56.4903375  -0.2900848  79.5245954   3.3736514  50.9119395  82.8457859
   4.3045558  50.8751205  82.6260289   2.9334241  51.0311531  82.0042278
  24.5523833  41.2700138  63.7407684  25.4772238  41.3943392  63.5275897
  24.5376114  41.1675256  64.6923512  80.6521723  13.0511441  28.6186265
  80.2075079  13.7904289  29.0333112  79.9714736  12.3849272  28.5235686
  72.5740247  53.4094356  20.7535235  72.5888026  54.1509608  20.1484171
  72.1016739  53.7349624  21.5197799  62.5364631  47.0253495  63.4317794
  63.4327769  46.7388330  63.6071693  61.9914684  46.2867269  63.7031637
  11.2073260  25.6685386  13.7654394  11.5519483  25.4927765  12.8898967
  11.8725595  25.3202301  14.3590533  60.6342966  32.7214352  56.5449302
  60.6797787  32.9762904  55.6234032  61.4714106  32.2897802  56.7156522
  84.3014238  23.5713173  83.0006302  85.0435855  24.0893358  82.6890462
  84.6682671  23.0178800  83.6900974  85.4310367  28.3548801  74.7897119
  84.8704160  29.1183741  74.6518229  86.3224767  28.6974414  74.7247638
  55.3582805  50.5301324  70.6308094  56.2465896  50.7351011  70.3390447
  54.9859670  50.0107563  69.9181644  54.0981925  34.6968178  65.4309997
  54.4699211  35.2123243  64.7152464  53.3878248  35.2394895  65.7732230
   6.4710817   8.7119698  21.4627746   6.8702921   8.5492987  20.6081396
   6.4437591   7.8518799  21.8819770  72.7783706  29.3399858  50.6060165
  72.9614493  30.1091109  50.0664236  72.1543737  29.6506675  51.2620169
  70.2014391  52.2367067  62.3629000  69.4946069  52.3052272  63.0047139
  70.2171437  51.3104827  62.1218725  23.9185700  43.6937584  74.4388691
  24.2252812  44.5232193  74.0725978  24.5016705  43.5289511  75.1798578
  33.6301460  38.6481126  17.7813196  32.9340717  38.0004431  17.8919388
  34.2900835  38.4036446  18.4301260  38.5537570  56.5213737  60.9125751
  37.9569640  56.4415596  60.1684651  38.0753264  56.1345831  61.6458752
  22.2644452  44.0511939  76.8858128  23.1777434  43.7677305  76.8437814
  21.8851475  43.7609079  76.0562953  35.4999021  50.4671870  37.6232281
  34.9673217  51.2385576  37.8170767  35.4055325  50.3421232  36.6789372
  52.3680537  66.1067015  13.6352126  51.5729361  65.8757596  14.1155101
  52.9031386  65.3134913  13.6622985  26.4167448  45.0936605  81.2412441
  26.2431910  45.4408211  80.3662638  25.6778008  45.3954366  81.7695668
  12.5785197  70.6716267  24.4547432  11.6409795  70.8645047  24.4477943
  12.8104250  70.5769570  23.5308983  42.6703187  63.5945809  67.5991777
  42.1412279  62.7976482  67.5646365  42.1367142  64.2150022  68.0957414
   7.9459913  24.1708390  78.6242870   7.6385854  23.6188722  77.9052139
   7.3976327  23.9221922  79.3684035  31.2187437  45.4593543  25.9900204
  30.6242319  44.8482345  26.4251297  32.0830834  45.0581908  26.0806655
  30.0221299  14.0740539   5.6863936  30.2545808  14.7027654   6.3697092
  30.8212084  13.5659765   5.5465269   4.4509414  11.0690443  57.2703560
   4.9618847  10.9164141  58.0652603   3.5480254  11.1495109  57.5777639
  47.7507566  61.0148711  16.9685330  48.3071266  60.2828609  16.7023651
  46.8654637  60.7433252  16.7261465  85.5756651  22.1829094   4.2086337
  86.5128949  22.1904759   4.0142762  85.2722739  23.0558137   3.9591870
  64.1552058  67.1180571  78.5580497  64.5433447  67.5279599  77.7850298
  64.6371577  66.2975415  78.6615312  86.4838196  13.7952448  14.4086805
  87.4160132  13.9711499  14.2809920  86.1898356  14.4832521  15.0057158
  42.8252180  41.8882944  32.1175675  42.7896490  42.4759633  31.3628411
  43.6288794  41.3840210  31.9908056  75.9515426  46.1654304   8.1566399
  75.2330434  45.7889191   8.6648032  75.7312129  47.0939243   8.0819023
  22.6581954  68.7692469  18.6741673  22.1630466  68.5074936  19.4504048
  22.4498400  69.6963104  18.5585253   7.0358403  54.1683164  61.1976816
   6.2464200  54.1933605  61.7384406   7.6572571  54.7351178  61.6546380
  83.2069364  61.2667352  12.5279064  83.0474562  62.1498856  12.1949750
  84.1605672  61.1943063  12.5675836  19.5348955  62.5967334  85.2278630
  19.4179547  63.5219280  85.4436678  20.3722148  62.5626652  84.7652966
  80.8425072  42.1951806  84.8519574  81.1905112  42.1011107  83.9652353
  81.0044748  43.1113739  85.0768755  68.1747084  22.8394652  82.7305043
  68.5103908  23.4408799  83.3952220  67.3869839  23.2679821  82.3956980
  52.2290562  53.4936015  71.1472445  52.1072302  52.9558866  70.3647785
  52.0298559  52.9052828  71.8755523  40.0349053  28.0499522   7.5958977
  39.7064066  27.8415067   6.7213287  39.5765721  27.4412712   8.1752680
  47.8336967  62.4625937  78.1732742  48.5343552  61.8150266  78.0960319
  47.7519906  62.8330486  77.2944573  49.9578111  15.7864768  73.8601709
  50.2615882  15.4822030  74.7153719  50.7229908  16.2098058  73.4709094
   0.6335342  31.4097043  67.6870456   0.8029032  31.9666639  66.9272153
   1.3414652  30.7655722  67.6744199  54.6480990  15.4463811  37.7103509
  55.5989572  15.3384987  37.7318443  54.4069333  15.2649083  36.8019795
  71.7341357  17.4208184   8.2849635  71.7103772  16.6668362   8.8741818
  70.8494219  17.4697924   7.9228656  15.8326645   8.3478780  72.8100620
  14.9544450   8.1020175  72.5193471  16.2725313   8.6491529  72.0150887
  26.9504580  65.5452600  26.6755163  27.6900767  64.9868998  26.4358709
  26.9624658  65.5610246  27.6325112  23.9650493  47.9498617  81.1555763
  23.3229239  48.6480068  81.2840298  24.0485684  47.5398913  82.0164948
  72.5754694  19.3879375  82.7501803  71.8008324  19.7981973  83.1347010
  72.2327630  18.8533123  82.0339680  18.2642628  36.1059222  24.4039810
  18.0250418  35.6965760  25.2355102  17.5439540  35.8864830  23.8130213
  78.3783515  62.9366785  32.6113114  79.2616579  62.6576073  32.3702288
  77.8011760  62.3180089  32.1637086  82.7616334  24.0519797  48.4777823
  81.8625828  24.0479632  48.8062999  83.1422958  23.2396995  48.8117418
  83.2159156   2.7358248  71.3871411  82.6030547   2.4317617  72.0566027
  83.0341918   3.6718849  71.3034758  47.4927322  44.2296231  66.6839640
  46.7597068  44.8237249  66.8450502  47.5457803  43.6944758  67.4758195
  28.6530045  58.7539435  77.2186362  29.5391496  59.0379811  76.9943563
  28.5084808  59.0947041  78.1013745  41.1678937  55.8356149  60.7088691
  40.3527922  56.2870732  60.9280189  40.8895867  54.9687303  60.4134234
  25.2324461  56.6501855  65.4090251  25.9480099  56.5112765  66.0294318
  25.5155253  57.3959782  64.8799776  56.5535840  42.6682831  28.9326631
  57.4217412  43.0661550  28.8676025  55.9980358  43.3623026  29.2875362
   9.6010874  68.2805630   4.0192896  10.4104484  68.2097579   4.5254054
   9.4102851  69.2184057   4.0026359  62.5955738   4.7100611  81.4418281
  61.9784338   5.1424702  82.0320759  63.4378861   5.1233912  81.6313015
   9.4638652  22.2295076  80.4231507   8.8562836  22.5348702  81.0968198
   9.6401381  23.0049207  79.8903333  81.9699944  27.9422214  74.8562951
  82.1243721  26.9992846  74.7991150  82.4369590  28.2138912  75.6464669
  55.8710371  51.8375970  82.0037047  56.7698987  51.6293253  81.7489451
  55.8236805  51.6009602  82.9299834  37.2594576  28.6299557   8.9072950
  36.4855313  28.1335420   8.6411310  37.0205856  29.0111949   9.7521788
  72.8005199  53.6907121  49.4591654  72.2846307  53.1088148  50.0172745
  72.8912768  54.4947385  49.9705719  77.9496139   2.7499367  66.9128484
  77.0650872   3.0053322  66.6508991  78.2031944   2.0796656  66.2782891
  41.8268128  47.9717091  72.8537710  42.7557890  47.9014722  72.6339943
  41.6214099  48.8987059  72.7324519  38.3631493  24.6667649  88.4741692
  37.4627852  24.9913837  88.4882728  38.3620749  23.9309411  89.0863734
  44.2316171  54.7132306  46.5730069  43.6238042  55.1640570  47.1591390
  44.5084446  53.9395804  47.0639895  10.8166573  70.6802664  28.3761382
  10.0315240  71.0029051  28.8185204  11.4716186  70.6111192  29.0707433
  65.0933185  42.8249451  36.0238125  65.0020417  43.7499959  36.2522451
  65.5783382  42.8287455  35.1986014  50.8715565  39.3384654  69.2144850
  50.0374508  39.3147511  68.7455104  51.5155820  39.5723093  68.5460689
   0.5566673  44.6979073  84.7007905   0.4893739  44.5298821  83.7608592
   0.0207752  44.0155404  85.1050514   3.9470118  63.9759245  80.1612347
   3.0703949  63.6828631  79.9124583   4.2244587  63.3558514  80.8355969
  44.4869965  50.6591691  26.5580744  44.0868372  50.3768143  25.7356511
  45.3854631  50.3322774  26.5119063  12.5266489  66.2046109  55.6966707
  12.9111996  67.0087153  56.0456243  12.6958481  65.5461616  56.3705015
   2.3943858  57.8896594  46.7708191   1.7896576  57.6807032  47.4827693
   3.1334453  57.2957302  46.9022388  72.5010962  13.0341615  86.1444372
  73.0652581  13.6792458  86.5708401  72.9963595  12.7545420  85.3745287
  46.5709860  14.8145721  88.1481361  46.5040745  14.2456732  88.9150185
  46.3181604  15.6801402  88.4692324   3.7549060  38.2460897  18.0294661
   3.9163420  38.8292188  17.2877581   4.2922369  37.4747459  17.8490880
  56.9967985  51.6435412   8.7236904  56.6208565  51.6390372   7.8434182
  57.3203545  52.5366774   8.8413809  45.3908658  61.7124456  56.0408575
  44.4649891  61.9323665  56.1439061  45.4028378  61.0391175  55.3606239
   5.2680388  63.7258369  74.4348234   4.7075776  63.8634860  73.6711691
   4.6896319  63.3334413  75.0888135  71.7572892  51.5464682  16.3037502
  71.9737295  51.0879499  15.4918718  72.2571306  51.0873075  16.9787035
  23.6826984  18.4037607   7.6310001  24.3455028  18.0233814   7.0546028
  24.0565756  18.3276903   8.5088731  49.0830345   8.1269189  64.0991257
  49.4969401   7.6507273  63.3792954  48.4077958   7.5310623  64.4235320
  10.2070715  66.3785990  29.6831472   9.7230800  65.7455209  30.2134265
  10.1107752  67.2073500  30.1523279  33.2294950  43.2536481  41.8587526
  34.1003753  43.4785343  42.1862057  33.3914257  42.6061307  41.1726539
  86.0147809  35.3928386   5.7862248  86.4564743  36.2150829   5.5739678
  85.2778626  35.6526027   6.3391316  68.9057542  19.5748017   9.3658741
  69.3585459  19.7570216   8.5424620  68.7021227  20.4389894   9.7235689
  21.1908871  32.2034813   6.0859144  21.0456176  31.6062309   5.3521430
  21.2296569  33.0714438   5.6842058  67.6967957   9.5995804  55.9324017
  67.3177597   8.7545018  55.6907289  68.6323816   9.4230196  56.0310788
  16.9269409  40.4870282  37.2516100  16.7717679  40.6480475  38.1823226
  16.2403952  39.8703268  36.9975110   5.3338611  32.2906098  76.0936974
   5.2508100  32.6591201  75.2141893   4.9507805  32.9534460  76.6682662
  39.0201207  54.3069022  79.9190566  39.1193432  54.1240232  78.9847430
  39.9144411  54.4394548  80.2334652  45.4191529  64.3813211  75.5563076
  44.5673692  64.1726742  75.9399256  45.6563424  65.2239157  75.9436154
  72.4256499  21.1934150  14.5138566  72.5129863  22.0691990  14.1375502
  72.7445442  21.2856010  15.4116538  14.1197716  26.1786039  11.1311491
  13.1770010  26.3051230  11.0243397  14.2215611  25.2359416  11.2625207
  85.2018780   1.6582923  81.2086636  84.7140405   2.0638067  81.9254651
  85.2247330   2.3282362  80.5253740  13.5446926  53.0022367  37.3005438
  14.0610458  52.1964276  37.2837256  14.1830672  53.6989915  37.1480889
  57.3281971  39.0377729  69.2343655  57.8033905  39.8668381  69.1789229
  56.4122137  39.2935201  69.3429919   3.4264954  10.3623543  35.2337689
   3.4119008  11.0610299  34.5796503   2.5511832  10.3782984  35.6208168
  16.6391074  54.4378802   7.5640045  17.5078651  54.0464750   7.6550750
  16.5012000  54.9087528   8.3858879  33.4221103  16.2907803  16.3454294
  32.4877065  16.0908202  16.2894179  33.7505324  15.7102897  17.0320162
  35.6178181  62.3707420  54.6046504  35.6743228  62.8335238  53.7686648
  36.5223368  62.1328603  54.8083416  68.5034382  53.9015783  85.9580631
  67.9188377  54.5128038  85.5098697  68.3963221  54.1053321  86.8871715
  32.6427219  60.9869031   8.7403108  32.1961226  61.0977312   9.5796546
  33.4811947  61.4343623   8.8542208  26.8510148   7.6443727  65.4382035
  26.7688685   8.5174752  65.8218385  26.8022025   7.7921866  64.4937458
  37.6797565  56.8032953  73.1013326  37.8869319  57.3865162  72.3711521
  36.7917798  57.0497159  73.3601882  75.1106887  30.3975882  63.0674782
  74.1566355  30.4552826  63.1193007  75.4087658  30.5470580  63.9647188
  21.9111262  16.3218139  53.7014903  21.1476481  16.3664191  54.2771147
  22.5454068  16.9189142  54.0982159  14.4821869  69.6775074  49.5888604
  14.5572470  68.7450652  49.3860075  15.2909790  69.8868485  50.0560470
  24.9385927   5.9115801  15.3245408  24.0068003   6.0459957  15.4975354
  25.2585371   6.7721784  15.0539155  83.6656440  36.2373839  10.4309491
  84.3128721  36.6426349   9.8538016  82.9790636  36.8980820  10.5221478
  20.8480662  45.0950237  45.1455949  19.9465919  45.2762742  45.4115351
  21.3382521  45.8714608  45.4159558  74.7941415  10.8364573  88.8370703
  75.3926263  10.9972690  88.1075586  74.6021566   9.9000240  88.7874085
  56.6913942  20.2090239  83.2751578  57.3827206  19.9651075  82.6596870
  56.6702815  19.4914607  83.9083159  84.7463463  12.7175083  76.4477762
  84.6432954  13.6113045  76.1210642  85.4343905  12.7824196  77.1100552
  14.9117686  39.0772989   9.2408747  15.7309549  39.2426843   9.7075794
  14.3005175  39.7241210   9.5933307  39.3931892  24.5128502  16.2068148
  38.6917087  25.0178313  16.6180946  39.7598118  25.1038081  15.5491003
  16.5485060  49.7173041  27.7935577  16.3980950  50.2772503  27.0319354
  15.9230342  50.0293411  28.4475071   9.8570806  33.7135344  82.8004616
  10.7749121  33.4619771  82.9031073   9.5690849  33.2526103  82.0125280
  47.8472043  11.0217357  88.9433094  47.5202961  11.2423803  88.0711404
  47.4322553  11.6602702  89.5232430  60.9471642  66.9527725  17.0329722
  61.5540203  66.6330688  16.3653293  60.5602207  66.1599193  17.4043081
  47.0180064  56.4194100  71.8977772  47.1852519  57.3402161  71.6968369
  47.3598110  55.9432148  71.1410476   5.3879003  12.0949012  13.9369666
   6.1464306  11.5111318  13.9281997   5.2046672  12.2634192  13.0127052
   5.7816550  23.5137630  58.5943528   4.8557585  23.4034855  58.3780513
   6.1082859  22.6216027  58.7109468   5.6220952  70.6389951  14.7252585
   6.2573406  70.6827902  15.4399452   6.1472710  70.7404779  13.9314553
  37.6948707  63.3205790  25.2947673  38.1600821  62.5536469  24.9606634
  37.4655973  63.8214564  24.5119599  13.5041826  46.1554878  86.0868615
  14.0684928  45.9331249  86.8273617  13.2568434  47.0674769  86.2396068
  59.4475589  26.1528950  16.9048080  59.3393286  26.6575439  16.0986768
  58.8555322  26.5707058  17.5302442  52.4586810  59.2346401  28.7259733
  52.9241209  59.8631706  28.1741157  53.1489239  58.7935389  29.2211766
  39.7120038  53.7251286  22.4068915  40.0465440  53.0787598  23.0286006
  39.1865371  53.2150109  21.7905341  10.5640846  51.4066077  82.7027803
  10.7403811  51.8151492  81.8552868  10.7580380  50.4792111  82.5665833
  70.8178633  35.7226621   3.1558851  70.1459421  35.5141122   3.8049311
  70.5759918  36.5899174   2.8309263  85.1238042  51.0465502  50.0426336
  85.2043661  50.7785870  50.9580227  84.2366268  50.7868442  49.7942369
  40.9663198  58.7778886   6.4411356  41.8566954  58.6373435   6.1190952
  40.7622509  59.6801301   6.1950705  72.9500979  60.5978761  36.6701150
  72.7274368  61.1546399  35.9240132  73.0579200  59.7245159  36.2934874
  75.7378318   5.3528707  79.7821369  75.7881136   4.6433028  79.1416550
  75.4934191   6.1225331  79.2682167  43.7923431  38.8633044  65.9490174
  43.1819266  38.4387339  65.3462211  44.5152874  38.2418580  66.0349691
  74.8713980  27.8156691  31.4891724  74.1748488  27.2312055  31.1900849
  74.4254585  28.6401437  31.6831090  70.1177164  36.7400350  62.0728526
  70.7346699  37.3142314  62.5266133  69.5353297  37.3373788  61.6035575
  73.1636920  41.1076106  67.8851358  72.9511427  42.0353590  67.9868091
  72.3286865  40.6558229  68.0071421  61.2361348  16.3071769  83.6299256
  62.1768070  16.1826149  83.7558304  61.1688225  17.0968958  83.0932274
  76.7504319  30.9988642  10.5316851  76.1083949  30.8476671   9.8380283
  76.7431135  31.9470847  10.6622845  34.5515058  34.8580150   9.0848598
  34.0319326  34.9067741   9.8872924  34.6210522  33.9211955   8.9011088
  10.6439031   6.5668098  62.0167558  10.1435553   5.7523326  62.0668631
   9.9910956   7.2566519  62.1358864  15.7711138   0.9411763   9.9688594
  15.2604182   1.2194755  10.7291038  16.4315403   0.3485730  10.3278720
  49.9747995  14.0559129  69.6754296  50.2928497  13.5371722  70.4143369
  49.0285860  14.1092115  69.8098590  62.9016225  41.1071926  36.9840238
  63.5964522  41.7637102  36.9347469  62.9802218  40.7409141  37.8648723
  50.7310365  13.0954757  33.1367118  50.7334582  13.1034934  34.0938752
  50.2304701  13.8737758  32.8919380  45.4291899  29.8354620  64.8984920
  45.5546560  30.7298713  65.2155440  44.8887568  29.4173301  65.5688125
  13.9318144  52.0736945  75.1103543  14.4929058  51.5344702  75.6677101
  14.1716762  51.8255987  74.2175237   6.7941919  32.2413116  67.2813613
   7.6290601  32.7035317  67.2066652   6.7193967  32.0308239  68.2121311
  48.0330464  50.5751389  37.7751303  48.7405270  51.2190690  37.8076421
  47.6171171  50.6326528  38.6353203   3.1767717  63.4756005  43.9232917
   2.3051537  63.3589258  44.3013140   3.0924793  64.2448142  43.3598763
   0.1486144  49.0189004   9.1105385   1.0252538  49.2806511   8.8290749
   0.2308999  48.8823526  10.0543688  56.4403748   9.5485085   4.5315734
  56.5144516   8.6745745   4.1481888  57.2430649   9.9961857   4.2641682
  22.6190462  19.9089442  13.7949135  22.1316888  19.1168185  14.0213014
  22.0308697  20.3950895  13.2170354  65.5439983  55.7533457  26.7319200
  64.9496667  56.2011403  26.1298554  66.3828019  56.1998720  26.6167916
  53.7030692   4.4159414  17.4284808  53.3893129   5.0090847  18.1111007
  54.2716829   4.9587409  16.8823315   9.3726806  46.4516758   5.0099466
   9.4391630  47.3118235   5.4246246   9.7130395  46.5853029   4.1253385
   0.5010892   0.0433915  87.3423711   0.4661512   0.6605814  88.0731842
   1.2805055  -0.4855311  87.5126148  11.7993582  41.0531519  80.6213818
  11.4388229  41.3655337  79.7915242  12.1633192  40.1921402  80.4154133
  18.5343224  49.1463615  29.3627004  18.1602065  48.4852921  29.9451575
  17.8214665  49.3690590  28.7639732   3.1912529  44.7594513  85.1283410
   3.4263584  45.6409038  84.8385155   2.2560849  44.8135303  85.3252373
  73.5332216  17.0493585  20.4847084  72.9232528  16.7484042  19.8112127
  73.2835085  17.9594772  20.6445812  21.2800027  28.1997844   8.6051354
  20.3571228  28.1003863   8.3713734  21.4948202  29.0985754   8.3556157
  27.7260596  41.2339864  10.5884449  27.5224216  41.4455418  11.4994925
  27.3900717  40.3458297  10.4679394  78.4208642  21.6860733  66.9977790
  78.9149905  21.4833456  67.7921168  79.0896538  21.8037347  66.3231619
  14.8692949  36.8338071  60.4367799  15.2248758  36.0743104  59.9753052
  13.9957835  36.5579678  60.7144891  22.6080584   7.2038572  23.4183648
  23.1784620   6.4704741  23.6486275  22.4331759   7.6419534  24.2512631
  38.2163953  33.5588383  69.9809461  37.8857903  32.7336800  70.3359756
  37.4456457  34.1243069  69.9317298  30.2069958  28.9002778  12.9481326
  30.7494998  28.6877122  12.1887005  30.8192576  29.2712159  13.5835634
  81.1199570   0.6932495  27.7817463  80.6969592   1.5049408  28.0618567
  80.5814620  -0.0009408  28.1616869  65.2502211  16.5524652  43.5080716
  65.7202817  16.6420818  44.3370732  65.6184707  15.7647721  43.1078673
  53.0244474  16.6338497   1.2556397  53.1064985  16.6399484   2.2092970
  53.4739285  15.8343852   0.9816781  -0.0113156  10.3242012   9.9857717
   0.7723853   9.7848653   9.8801230  -0.0342847  10.5329713  10.9196449
  28.0513132  51.3062943  36.2655743  28.9530371  51.0256206  36.4216130
  27.5562863  50.9401910  36.9984785  76.7438419  39.7009827  10.7660772
  76.2803523  38.8747747  10.9031526  76.1836561  40.3605921  11.1751483
  64.7360496  45.5964803  36.4213897  63.8278780  45.5766623  36.1196224
  64.6707219  45.6953123  37.3712299  31.5407634   2.5871471  64.9931683
  31.8061335   1.8501796  64.4429961  32.1633204   3.2820676  64.7792985
  11.6658551   5.2384577   9.8237395  11.9995192   5.9295936  10.3957808
  12.1040252   5.3885402   8.9860558  59.9405200  48.2315990   0.3568165
  60.2284184  48.5964747  -0.4799702  59.7908820  48.9963032   0.9127552
  48.6050344  34.0064695  60.1716285  48.3021758  34.0350288  61.0792038
  49.4347618  34.4836470  60.1808857   2.0102763  58.8118162  60.3393417
   1.7848750  59.7419035  60.3584142   2.2388205  58.6021395  61.2448996
  24.6362320  45.7819238  15.0134075  25.1366202  45.8123886  14.1979841
  25.2086432  45.3236817  15.6287053  74.9757299  10.6893413  80.4195618
  75.5763511  11.0692800  79.7783656  75.5456888  10.2495882  81.0504309
  82.7669085  56.1889491  52.1499300  83.6312461  56.5829065  52.2680398
  82.6615401  56.1227191  51.2008552  21.6376552  39.5671112  28.2878813
  21.3538978  39.8003043  27.4039500  22.5898068  39.4940375  28.2223109
   3.7118972  62.1941249  31.2420433   3.9742599  61.4707366  30.6727393
   2.7870682  62.0303197  31.4266807  58.8616291  27.5061719  76.8979907
  59.0743382  28.1054297  77.6134464  58.9255350  28.0435487  76.1084503
  53.5300721  31.0101879  62.7804037  53.8249009  31.3439917  63.6276834
  53.3283898  31.7949674  62.2708184  28.5448845  20.7489941  18.9212004
  27.8047451  21.2975549  19.1810205  28.4336619  19.9425335  19.4246710
   4.6187431  50.3699993  78.9095457   3.9940298  50.2108966  79.6171130
   5.4320154  49.9664718  79.2128370  49.3790254  33.6962819  88.7987306
  48.5224054  33.6452164  88.3746711  49.2142709  33.4323631  89.7039569
  23.3574823  60.6432920  76.9537937  23.5933068  59.7522495  77.2119832
  23.9999899  61.1986036  77.3954324   0.5716269  34.0129632  40.4056714
   1.1437847  34.7077791  40.0799443   0.0314873  34.4396189  41.0708376
  30.3703510  59.1034514  65.8800545  30.9644911  59.7721933  65.5394468
  30.5733395  59.0561116  66.8142849  48.0726239  58.1889741   9.5881730
  48.5367822  58.6386692  10.2942631  48.0252057  57.2771161   9.8753984
   1.7099672  49.9314667  38.5913346   1.3231027  49.0808894  38.3837631
   1.9780318  50.2859644  37.7435701  75.3951022  63.0349980  28.8870002
  75.9310778  63.8184053  29.0104302  74.6144779  63.3483912  28.4302265
  62.9030011  45.0832568  46.0291835  62.0217823  45.4454733  45.9370720
  63.2550655  45.0804875  45.1390853  67.1051895   5.2515249  26.4494819
  67.7385067   4.6042874  26.7596833  67.2319944   5.2752451  25.5010149
  86.9405424  18.2429680  77.8323655  86.3242513  17.7845975  78.4036042
  86.3858830  18.7122490  77.2091800   9.9250888   9.0063764  77.3610127
  10.8246198   9.2095822  77.6174952   9.4454741   9.8225595  77.5025991
  67.0982933  10.0254470  -0.0397511  66.7094438   9.2765854  -0.4916738
  67.4885397   9.6520488   0.7505105  26.3950215  43.4572194  22.6025201
  26.2962905  44.1741547  23.2290086  25.8380316  42.7593418  22.9474270
  73.8396287   5.6213097  49.5168162  72.9291762   5.8600901  49.6908619
  74.1966272   5.3961750  50.3759427  12.2927250  51.0667849  32.5460848
  13.1668848  50.8950304  32.8961945  12.2637942  52.0163994  32.4293499
  51.2677397  63.5310612  64.1287995  51.6332795  63.1998051  64.9490933
  51.8534961  63.1926178  63.4516161  19.3576010  64.9231838   6.4466083
  18.8782766  65.2521896   5.6861906  19.7846308  65.6971654   6.8138003
   6.2121094  33.9668926   0.7728564   6.8617195  33.3703110   0.4009303
   5.4045228  33.7668975   0.2995302  79.6695445  61.2139305  58.6562634
  80.5829664  61.0278238  58.4388777  79.5526216  62.1365577  58.4297242
  82.3695083  55.1058029  21.6763737  82.9332279  55.8517452  21.8813667
  82.5106243  54.9483677  20.7428148  84.8077808   4.2349255  23.1703774
  84.3637774   4.0702907  22.3385191  84.1823427   4.7526602  23.6773388
  73.1311472  38.4066307  72.1961545  72.3309964  38.7196924  72.6180347
  73.8140335  38.5316396  72.8551468  30.1557180  41.3157477  63.2455505
  31.0780013  41.5119585  63.4102522  30.0634827  40.3904103  63.4724318
  79.8048172  36.1199985  62.9734784  79.8006557  36.2774935  63.9176234
  79.2455418  36.8083052  62.6133717  60.2602217  45.4467360  86.8340767
  59.6027849  45.8126813  86.2423905  60.6537991  44.7278295  86.3396051
  12.0165930  60.4982092  57.8226331  11.6628676  60.5439634  56.9343669
  11.2764486  60.7216556  58.3869821  37.0971702  39.3156923  14.4174220
  36.7274150  39.7053827  15.2096684  38.0286734  39.5325722  14.4561113
  58.4703409  51.6483416  25.6293584  58.2813442  52.3347238  24.9895212
  59.3389346  51.8677429  25.9664636  64.6854342  38.8104699  69.8791509
  64.5102782  38.9597732  70.8082691  65.2135139  39.5624790  69.6111099
  17.8805740  45.4653600  37.3897810  17.1642352  45.1804774  37.9571719
  18.4676892  45.9497779  37.9701833  84.7250777  38.8287642  67.0716175
  85.3024664  38.3809631  66.4532905  84.0967930  39.2936602  66.5190219
  51.0417817  32.3474234  57.1987153  51.1285515  33.2987918  57.1387073
  51.5106300  32.0153906  56.4330996  48.0143918  37.9278043  23.7165994
  47.0886803  37.7074550  23.6129841  48.2419608  38.3912255  22.9105691
  63.4537579  34.0959781  28.4875602  63.4931906  33.2749684  28.9780906
  64.1013184  34.6594127  28.9111622  79.4468926  62.4736235  25.7624977
  78.6666531  62.2632064  26.2755111  79.1836729  63.2172216  25.2202715
  74.6975444  58.2519126  77.4132785  74.6998580  59.0607092  77.9252108
  75.5576503  58.2315598  76.9937127   7.8258633  70.4661941  79.2963946
   7.6254359  69.5572015  79.5195382   8.1997059  70.8326952  80.0977375
  39.2547249  37.4084342   5.0317277  39.6397528  37.1142837   4.2062214
  38.6064199  36.7376297   5.2460963  55.6198957   3.8025073  20.0769843
  55.5031841   2.9246838  20.4403521  54.7294165   4.1330015  19.9584425
  38.5218438  48.1017898  89.0398529  38.7975887  48.9677987  88.7394778
  37.5941356  48.0524783  88.8092934  31.6735708  66.7265298  59.8010267
  31.2767454  67.3754101  59.2198934  32.5821836  66.6649288  59.5063065
  66.7324436  61.6760313  25.7812857  66.4902184  61.9779519  24.9058414
  66.9911404  60.7629159  25.6566741  11.8932275  57.0641122  43.7166344
  12.6357700  57.1367243  44.3162926  11.2256721  56.5955375  44.2176728
  47.1200887  30.8149844   2.8458733  47.4687987  31.0101481   3.7156689
  47.1083064  31.6604892   2.3973037  60.3035384   8.8555790  60.9449553
  59.5739087   9.2613000  61.4132104  59.9138065   8.1028479  60.5002793
  12.3329998  35.9657679  72.7870322  12.9855348  36.6089127  72.5099137
  11.9945904  35.6004242  71.9695758  78.2877459  71.4335203  29.0122299
  78.0570069  71.4267017  28.0832816  77.4815810  71.6946676  29.4573501
  60.2440936  46.8747154  49.6220153  59.6876484  46.3337465  50.1823306
  61.0023192  47.0836854  50.1675951  10.8440584  62.6503627  47.4688219
  11.6654131  62.1718773  47.5813378  10.2843260  62.0522428  46.9736611
  33.2531506  38.1371401  79.5016467  34.0999498  38.0798231  79.9442275
  32.8600895  37.2729526  79.6237726   0.6304697  61.4384295   3.8752318
  -0.2400067  61.1146093   4.1068418   0.6517489  61.4051678   2.9188465
  74.1671835  62.5529385  41.0132620  73.8265895  62.0519057  40.2721860
  74.6920195  63.2460563  40.6128036  63.4184257   0.2019678   2.8172593
  63.9648597  -0.3502401   3.3764624  63.3255698   1.0199019   3.3057196
  74.4043007  70.4010895  83.4371053  75.0517807  71.0409906  83.1412537
  73.6663382  70.9298190  83.7405658  27.4810768  63.8265027  69.5591912
  27.7560369  64.3985673  70.2756901  27.0324931  63.0998226  69.9915574
  70.8568691  53.7611037  82.4751686  70.5392102  54.5278187  82.9521098
  70.1326970  53.5218660  81.8967467  69.6444919  38.2404740  42.2577987
  69.1669851  39.0617821  42.3747269  69.7233257  38.1422570  41.3089202
   1.7813474   4.4222130  81.9652163   0.9793547   4.3191627  81.4529466
   2.3618174   4.9332499  81.4011881  73.9485925  26.2068062  62.2362915
  74.5285514  26.3477205  62.9846381  73.2970794  25.5809844  62.5526923
  57.1736041  15.3113289  46.7537245  57.7318921  15.9689312  46.3388684
  56.2868692  15.5394365  46.4746188  10.3111052  38.2493422   5.9296305
   9.9422467  37.7258802   5.2181794  10.2481670  37.6846745   6.6999688
   2.9643781  32.0633064  64.1937433   3.7537659  32.0543760  64.7350556
   2.3115193  32.5135938  64.7296991  63.2759040  10.8806356  25.9111697
  63.0559315  11.5728682  25.2877453  64.1485400  11.1127580  26.2287502
  11.9773234  59.7288834  78.0451243  12.8156746  59.4887512  78.4397579
  12.0882540  60.6433470  77.7849658  52.9741137  54.1003174  24.1588331
  52.5848417  54.9638405  24.2967716  53.6285514  54.0190161  24.8526149
  51.1364536  22.2820765  57.3410735  51.4354006  21.9351229  56.5005464
  50.4517226  21.6746273  57.6210394  84.5315891  33.6120157  44.8066238
  84.6778360  34.3019847  44.1594867  85.2928272  33.0380685  44.7209905
  77.2952016  13.0801176  55.5760475  77.2929797  13.7892497  56.2189771
  77.6475680  13.4791648  54.7805407  66.9041036  34.7924883  58.2283927
  67.6589354  35.2459015  58.6037289  66.8011557  34.0099508  58.7699356
  65.1652632  12.3491505  66.8115902  65.8669767  12.6015243  66.2114756
  65.0286101  11.4170839  66.6418561  42.7098423   0.5928632  12.5518723
  42.8245913  -0.1458366  13.1496909  42.5905022   1.3493654  13.1260624
  61.1174030   4.4051863   4.0252208  60.5670654   3.6788014   3.7324320
  61.9452273   3.9936146   4.2733085  10.0008414  37.7744420  50.1352576
  10.5287329  38.2640915  50.7659762  10.5997759  37.5936917  49.4108001
  34.7537081  43.7523955  30.0995699  34.9270650  43.8208151  29.1606887
  34.5941361  42.8200734  30.2463495   5.8100237  65.6917988  88.7551506
   6.5391460  66.2781347  88.9571971   6.2156038  64.8303835  88.6566611
  13.8528147  30.4360256  11.7674636  13.7012850  30.4167972  10.8225293
  13.5295485  31.2933434  12.0444779  18.3912596  14.9991195  78.3733096
  18.7262928  14.1063269  78.4564118  17.8261767  15.1149563  79.1371780
   2.0619607  42.6161455  79.2668675   2.8785845  43.0944721  79.4102588
   2.3404489  41.7263593  79.0501723  53.3969472  65.1644739  50.4975495
  52.9729356  65.8969490  50.9446806  53.2641334  64.4179647  51.0817724
  84.2506336  30.6151573  75.1179008  83.5976304  30.1069064  75.5990450
  84.1303546  31.5131435  75.4267463  49.3260772  13.0577346  67.3874419
  49.2744497  12.1231620  67.5877930  49.5632100  13.4682149  68.2190101
  10.3597028  65.3512080  57.9924765  11.0752440  64.7372294  57.8273615
   9.6577841  65.0635781  57.4086863  75.5756756  66.9739490  74.2144962
  74.9971059  67.4837738  73.6474268  76.0662624  66.4129043  73.6138421
  75.7884927  29.0111010  60.9528660  74.9732901  28.6827194  60.5736008
  75.5180907  29.4473925  61.7608044  66.6394923   2.9341939   9.3925601
  66.3717488   3.1609605  10.2831341  66.5951364   1.9784147   9.3651645
  82.3998068  40.9491051  30.8370837  82.1344581  40.2128193  31.3881780
  82.4838182  41.6844894  31.4440300  53.4356689  38.3004852  65.9123629
  52.6376859  37.8025933  65.7347151  53.3058698  39.1318138  65.4559893
  81.1440202   2.4752042   3.3591530  81.9651162   2.9109961   3.1308579
  81.0825004   2.5633097   4.3103021  26.4763110  68.7104869  72.6356399
  26.2456153  68.0862327  71.9476588  26.9988356  69.3767072  72.1891532
  37.4528116  34.2036702   4.4270589  38.2477341  33.9607163   4.9017204
  37.2381388  33.4291734   3.9071530  83.7113822  36.7472130  28.2820764
  83.7122039  35.8054150  28.4530961  83.4836354  37.1431896  29.1232457
  48.6357288  41.7611455  35.1735125  48.6024977  42.4360759  35.8514479
  49.0043940  40.9960767  35.6150865  13.9794379   3.8746949  28.6784347
  13.7768597   4.7515166  28.3522788  13.9833197   3.9684631  29.6310229
  56.2865984  56.5237491  58.4176438  57.0997755  56.0296806  58.5219087
  55.6158791  55.9674408  58.8137355  64.6396511  48.6729457  17.0154753
  64.2198385  47.8592707  16.7363298  65.5245268  48.4109656  17.2696273
  63.3839831  21.3821474   8.2718507  63.8172410  22.2148530   8.0844453
  63.7587494  20.7694332   7.6391079  57.5817320  70.8865573  44.3392128
  58.3840231  71.1994072  43.9212586  57.5234835  71.3888782  45.1519320
  77.8063897  55.8827966  74.7560474  78.2208087  55.4327072  74.0199032
  77.2896615  56.5792083  74.3507887  28.0221055  38.9674420  66.4326499
  27.3062432  38.4329127  66.7762361  28.7903128  38.6874287  66.9303264
  25.0090692   6.8655976  18.8368035  24.8999425   5.9640341  19.1393038
  24.4815601   7.3868118  19.4420322  47.8678938  40.6195845   7.7663525
  48.1539752  40.8887417   6.8934586  47.7702699  39.6694184   7.7040175
  35.5916442   7.9483002  23.7857741  35.6942054   6.9968714  23.7634967
  36.4851431   8.2838803  23.8584212  80.9222591  53.0400294  62.0612977
  81.3474213  53.2374036  61.2267245  80.1305587  52.5596456  61.8190710
  55.8054322  48.2063254  20.4661149  56.0507694  48.7313267  19.7042651
  55.1874955  48.7566527  20.9472863  31.1230624  40.6978568  18.5913746
  31.9172817  40.4236288  18.1328481  31.4407096  41.2073475  19.3368618
  16.3994551  34.2247729  30.7488259  16.0034010  34.5848472  29.9552773
  15.7104833  34.2880390  31.4102993  81.9504932  38.7711243   4.2462912
  81.9178784  39.6273463   3.8196156  82.1184800  38.1546143   3.5336007
   5.1600550  56.9421138  49.0674475   5.0355124  56.5570914  48.1999921
   4.6359755  56.3930902  49.6506674  80.9532291  21.8887807  14.2840030
  81.5698981  22.1013090  13.5834440  80.1094314  22.2097720  13.9658807
  83.8656479  41.3182247  47.4509140  84.6588227  41.4698414  47.9648381
  83.7910275  40.3652372  47.4011309  11.5827637  50.3030241  44.0812768
  12.2176753  50.2287287  44.7937368  10.7335164  50.3459996  44.5207810
  13.1360874   3.3391676  11.4923893  12.6088392   2.6297183  11.8597078
  12.5384122   3.8028073  10.9058278   2.1122860  64.4962362  33.9128014
   2.3765875  65.3057354  33.4756657   1.5710864  64.7862613  34.6471176
   1.7327541  62.3716015   6.0259192   1.4285602  61.9745506   5.2098013
   2.0342689  61.6324266   6.5540680  84.2432591   3.5845442  20.3197661
  84.4770024   3.4464834  19.4018690  83.7018501   4.3738867  20.3129381
  70.5305195   8.2940948  26.6237052  71.2092909   8.3044205  27.2985346
  69.8006198   7.8227560  27.0253494  42.8469910  57.2180118  65.1092367
  43.0727983  57.1638506  64.1806306  43.6907636  57.2196460  65.5612068
  68.7185617  21.3177649  63.1398882  68.1845430  20.8190826  62.5215260
  68.2634155  22.1551675  63.2283789  60.1351958  33.4157345  67.5350998
  60.0383707  32.4731758  67.6708933  61.0692458  33.5814255  67.6628846
   1.3633816  13.3472389  17.5148992   0.9002563  13.7301734  16.7698435
   2.1928221  13.0399300  17.1490829  78.1428080  47.6755460  43.4527575
  77.3999708  48.2611094  43.3059921  77.7446092  46.8235433  43.6309736
  61.0283983  44.4190692  78.1335660  60.7582572  44.1084041  77.2694232
  61.5113849  45.2265284  77.9575959  79.7852168  62.4344520  53.1125320
  79.4742764  62.2884815  52.2190889  78.9872014  62.4836929  53.6388196
  65.1346796  45.9256164  81.3144053  65.6529777  45.5533364  82.0278522
  64.8054335  45.1650966  80.8354078  25.9213967   3.4991565   3.9540894
  26.6685100   4.0626953   3.7528987  25.6273946   3.7902676   4.8172516
  49.5120764   8.4495376  10.7464648  48.9951879   7.6485689  10.6598210
  49.2402334   8.9913308  10.0056589  47.6730362  46.9143659  48.3003348
  46.9040800  47.1789538  47.7954274  47.7417432  45.9707215  48.1552608
  83.4088505  68.1360083  64.5030711  84.0115616  68.7361157  64.0639330
  83.1039327  68.6212473  65.2697523  60.2234992  67.8019816  11.2436047
  60.2457452  67.6961807  12.1946794  61.0048681  67.3443304  10.9333631
  54.9768422  49.8809854  84.5005954  54.9277441  49.4310317  85.3440187
  55.9041143  50.0945228  84.3966720  52.3635116   3.7727170  59.5232623
  51.9164388   4.2564697  60.2177701  53.2758466   3.7305865  59.8097965
  27.4045937  24.7706367  18.7256451  27.1912238  24.8454169  17.7955306
  26.9926428  23.9515965  19.0007840  22.2630895  33.7224461  60.3788013
  21.5390003  34.3354750  60.2518279  22.3531139  33.2799842  59.5347901
  59.7055016  40.6616876  18.6363532  59.2172844  39.8520414  18.4868576
  60.4949515  40.3831155  19.1004635  52.6921281   2.7437357  55.2342745
  52.5819812   1.8264191  54.9840152  52.5365511   3.2327781  54.4262737
  57.9428194  58.3416884  84.3679815  57.7131775  57.4439211  84.6077944
  58.8896660  58.3900681  84.4997875  27.6207990  54.8084789  16.7346313
  27.7682296  55.7449557  16.8669464  27.8457100  54.4095025  17.5751459
  80.3335059  13.9295371  88.8824836  79.6527385  13.2746486  89.0371076
  79.9429155  14.7540244  89.1721241  30.9157243  70.1941090  19.5917709
  31.1611808  71.1018590  19.4129611  31.5293318  69.9090009  20.2688463
  62.9837893  38.3692815  62.0800534  62.5152974  37.5420744  62.1917477
  62.8995713  38.8084079  62.9264028   1.2114296   1.7367784  41.4361239
   0.5145466   2.2010253  41.8998702   0.9076432   0.8300929  41.3929142
  86.0743110  40.1576523   0.4627207  85.8968040  40.0462498  -0.4712561
  85.2564039  40.5006678   0.8227211  13.5351759  30.0880977  66.4647603
  13.1852151  29.5113325  65.7857160  14.0884025  30.7085826  65.9902389
  30.2246746  21.4072349  79.7706973  30.6230680  21.4699104  80.6387907
  29.5002460  20.7918389  79.8834929  35.0324422  54.6358483  60.2397417
  34.3054515  55.2392004  60.3936329  35.6919197  55.1649459  59.7909911
  15.9787721   0.4833239  87.5692680  15.7561313   1.1232725  86.8931550
  16.6538154  -0.0639908  87.1680262  45.1364423  48.0435077  19.6919646
  45.3991649  47.1438594  19.8864936  44.2993831  48.1515335  20.1435111
  41.5973531  46.8337853  32.6154298  42.3552596  46.3064578  32.3629714
  41.8211901  47.7225049  32.3391937   6.2610861  48.4613638  72.6908581
   5.7495623  48.3140481  71.8953248   6.1134545  49.3829382  72.9033136
  85.0017291  34.5787985  64.3184195  85.7754737  34.9586921  63.9022080
  84.5654557  34.0953029  63.6169002  61.7937892  59.2013228  76.4939982
  61.4973088  60.1059799  76.5936312  62.5115073  59.2526376  75.8627460
  14.3466926   9.9052006  21.0986593  14.3649690  10.8352711  21.3241955
  15.1301152   9.5429554  21.5124942  39.9683505  54.4814976  66.3476680
  40.5743165  53.9263439  66.8384239  40.1574255  55.3693274  66.6513798
  45.6397451  17.2736677  88.7942078  44.8670433  17.1714695  89.3498330
  45.2971238  17.6137795  87.9676689  38.7495997   9.7705663  84.5262123
  39.1854100  10.3446650  85.1560630  38.5136943   8.9938342  85.0334280
  53.7160067  66.9816429   2.7138731  52.8224851  66.8095276   2.4168423
  54.2515384  66.8943556   1.9253184  65.0031799   4.5963312  32.8756023
  64.0510908   4.6457330  32.9611458  65.1467086   4.0154215  32.1284910
  27.0869151  40.5370563   4.8814950  27.6495500  40.1863366   5.5719076
  27.3116090  40.0236383   4.1055140  68.4254054  64.6211796  27.3775763
  68.4622303  65.5245847  27.6917977  67.5830702  64.2924879  27.6916860
  41.0547099  59.6024711  36.7717781  40.9304864  59.3767731  35.8498992
  41.9302476  59.2777047  36.9819981   7.0741998  38.5603878   0.5196359
   7.4284665  38.8977451   1.3423856   6.1300073  38.7011134   0.5898402
  26.3044762  42.7988931  34.0923652  27.1595481  42.9126788  33.6774716
  25.7158331  43.3578003  33.5850644   6.4125479  40.8448133  37.2971800
   6.9068000  41.5365000  37.7370848   5.8008725  41.3122314  36.7283168
  19.9981368  20.6499500  66.9505515  19.0663756  20.4693402  67.0747810
  20.4434294  19.9368867  67.4082492   1.8041175  28.8545943  66.2732000
   2.4658842  28.1654739  66.2148065   1.7919581  29.2494819  65.4013354
  74.6426106  70.4878899  57.8764757  74.5411810  70.7017625  56.9490047
  74.3857979  69.5679482  57.9396138  39.4334582  65.6572726  82.4640692
  39.0976660  65.0576482  81.7977915  40.2095723  66.0494999  82.0640236
  49.6173911  66.0287409  14.6904694  49.5810075  66.7737458  15.2903659
  48.8741454  65.4811194  14.9433099  72.4384982  51.3000710  82.4348295
  72.1866107  52.2230567  82.4645262  72.4615050  51.0879823  81.5017052
  65.9781446  34.9527169  31.8843784  65.2619471  35.2274954  32.4569076
  65.6021385  34.9719916  31.0043331  80.0271901  59.1335531  80.2480520
  80.4318772  59.9483033  79.9503236  80.4315943  58.9620755  81.0985133
  35.7726408  67.2116690  43.2867820  35.4711047  66.6039349  43.9620354
  35.1893651  67.9664705  43.3661290  34.9063576  56.7885554  38.4378318
  34.3399546  57.3508582  38.9662588  35.6124385  56.5338685  39.0318152
  55.0331469  59.9069899  78.7577264  54.3692460  60.5652988  78.5525512
  54.5859426  59.2874103  79.3342343   4.2680033  45.8925432  48.8376060
   4.4584844  45.9041074  47.8996214   4.1833341  46.8156524  49.0762109
  55.9995214  46.2092345   1.1555747  56.6383989  46.5704113   0.5410677
  55.3850657  45.7241928   0.6047476  62.9231170  42.3791373  44.9485202
  62.4083136  42.5961705  44.1712777  62.7710286  43.1095545  45.5481799
  48.1634525  63.8291350  35.7011856  47.2257896  63.6788069  35.5810956
  48.2192599  64.7097606  36.0721518  14.3229111   9.6481031  64.8507754
  14.4242465   8.7110802  65.0179610  14.6886114   9.7761538  63.9755050
  10.1491011  71.0883571   2.5274886  10.5938720  71.7881919   2.0493235
  10.8536141  70.6163850   2.9714882  56.1431017  26.3525228  42.6474093
  55.6957463  25.5391170  42.4140082  55.8084626  26.5686759  43.5177692
  63.0889902  25.1497012  87.4760976  63.2418553  24.9785124  86.5468191
  63.7247254  25.8285944  87.7023199  24.2004519  26.8915346  18.7368813
  23.4769913  27.5182020  18.7480445  24.7113879  27.1293298  17.9631697
  35.2585879  56.5708840  63.4220446  34.4287561  56.1049378  63.3195499
  35.3235977  56.7404025  64.3618685   9.7927306  40.6334750  74.1151265
   9.7923092  39.7695972  73.7028804  10.5663840  40.6295175  74.6787545
  31.5350287  40.9080037   0.8554732  32.1542028  40.7240397   0.1490650
  31.9662236  40.5782085   1.6438499  85.0672364  25.1920632  47.2196506
  85.3000720  25.7811156  47.9373112  84.1230161  25.0644527  47.3112770
   1.5487617  68.5102223  13.5862758   1.3237523  69.1786010  12.9390722
   1.3567094  68.9195232  14.4299704  63.4280213  65.2492590  42.0863450
  64.3675514  65.0765452  42.1470488  63.2644639  65.3576566  41.1494721
  18.8492926   0.7918055  76.8007855  18.0056998   1.0975229  76.4674391
  19.3073980   1.5906794  77.0618829  62.7495644  50.9074774  18.2659511
  61.8721416  50.5456970  18.1415489  63.3375113  50.2303142  17.9312866
  69.3238690  13.3113401  25.0627088  69.5276572  12.9617941  24.1952298
  68.5506678  13.8585084  24.9248736  70.9009966  31.2863449  46.0155838
  70.8062011  31.8720522  45.2644562  70.1363255  30.7124018  45.9697665
  48.6527837  27.6558656  62.2323084  49.0204207  26.8122025  61.9690450
  49.2383645  27.9674372  62.9224171  27.0726220  12.9829182  77.1775874
  27.8510072  13.2775681  77.6503768  26.5759212  12.4805905  77.8234876
  21.9093564  67.9866040  81.5809070  21.9371560  67.4875431  82.3972386
  21.3600030  68.7442469  81.7819542  59.8916217  36.2267129  56.1965605
  60.1592270  37.0145787  56.6697273  60.6692354  35.6685703  56.2016057
  28.8030182  37.8253163  27.2411094  28.2882096  38.4836901  26.7744748
  28.8125770  38.1281236  28.1491007   6.5784386  29.1352308   0.3384734
   7.2294332  28.4516080   0.1800507   6.0021540  29.0987252  -0.4249368
  14.4926023  51.0638890  29.2485050  15.0265480  51.7462478  29.6553469
  13.6521619  51.1140362  29.7038918  10.0256554  70.4075818  73.2344942
  10.2896337  69.8346775  73.9544442  10.7317217  71.0505331  73.1687990
  80.6537965  59.2068311  20.6811498  80.3156568  58.6865440  21.4099809
  80.3163874  60.0884950  20.8394393  44.3002147   3.1423570   6.1162569
  44.7068722   3.8764705   5.6558887  43.3637681   3.3401138   6.1024063
  43.2096488   9.3215358  11.6009342  42.5072417   9.9640772  11.7009175
  43.2490686   9.1543538  10.6592718  61.8051689  67.7627890  73.6906459
  61.7926990  68.4266930  74.3800717  62.6949526  67.4106481  73.7133062
  52.4443000  22.8945813  75.2129364  53.0573407  23.1706940  75.8942402
  53.0022640  22.5745117  74.5040897  65.1122642  68.5880891  83.0590531
  64.4772066  68.0234930  83.4996947  64.7435543  68.7281978  82.1868981
  79.3710700  18.0548448  12.0688017  79.9984471  17.5907216  12.6230755
  79.7978713  18.8882220  11.8699174  30.1230219  68.8805666  14.9995095
  30.2327067  68.4703574  14.1416461  30.9636494  69.3048938  15.1713338
   0.8263295  33.6476073  44.0585269   0.7962994  32.7082367  44.2399457
   1.2904105  33.7156827  43.2241250   9.4637489  38.0699428  72.8166457
   8.6022558  37.8978099  72.4366040  10.0513390  38.1249223  72.0630232
  79.0982295  13.8805716  53.5263667  78.9207969  13.6888720  52.6054971
  80.0419603  14.0367982  53.5609682  86.0534348  61.9553341  49.0757549
  86.2422901  61.6644888  48.1835808  86.7599468  61.5832213  49.6035851
  46.7440732  56.3447784  68.0997073  47.5821646  56.1193274  68.5034480
  46.1891430  56.6113595  68.8326594  80.7888790  13.1365519  65.5145889
  81.1822578  12.2907758  65.7294092  80.7828618  13.6153353  66.3434206
  73.2728230  52.7293472  33.0711127  73.1537702  52.0883866  32.3702362
  73.8463841  52.2922260  33.7005447  62.0430479  29.5338644   7.2921873
  61.3745001  29.2350674   6.6757491  62.1762465  30.4559840   7.0726753
  40.0184675  60.4310955  18.9232204  40.5948929  60.3121778  19.6780873
  39.1344614  60.3886650  19.2878637  24.3800356  55.5574233  45.9074617
  24.6840772  56.4017710  45.5744938  24.8314675  54.9098508  45.3660830
  39.0700741  31.9418749  27.7365415  38.8416274  31.6921917  28.6319197
  38.6389956  31.2866759  27.1877998  45.6026041  44.8829818  59.8327715
  45.8260753  45.7913693  59.6299796  44.6514617  44.8885592  59.9401438
  77.4022815  68.3596137  25.9121952  76.5289481  68.0426619  25.6818428
  77.2502256  68.9906174  26.6157186  57.9786532  44.6943458  31.1438438
  57.6259999  44.9093661  32.0073447  57.3546666  45.0783585  30.5278837
   1.9556811  48.3954105  18.0560354   1.6935291  47.6388315  17.5315390
   1.4500841  48.3130658  18.8646285  52.4643971  62.2412439  71.3258922
  53.1804555  62.5521833  70.7719889  51.7374580  62.0982903  70.7197935
  78.7875450  59.2017583  55.5637068  78.6986983  59.5847842  56.4364205
  79.3149910  59.8349650  55.0767963  28.9915175  47.2208699   2.6121266
  28.9343002  46.3834158   3.0721577  29.6657222  47.0830740   1.9467755
  41.7143967  70.2043777  86.8067794  42.2482820  69.4566208  86.5383432
  40.8118876  69.8966119  86.7231778  20.3145123   6.8524462  63.5656090
  20.3100776   7.7993266  63.7057149  20.9335314   6.5172516  64.2142166
  14.7861309  43.3366145  65.8434137  15.3225179  42.7950702  65.2644054
  14.1660891  43.7716038  65.2581237  15.6791115  40.1578215  33.2663072
  15.3060873  39.2817368  33.3640840  15.0591390  40.7334597  33.7140868
  29.5895380  50.5249585  39.4485476  30.3465814  50.5633059  38.8640422
  29.6564592  51.3185720  39.9795193  12.3492693  67.6269209  20.6931779
  13.1249772  67.3076688  20.2321061  11.6125332  67.3062272  20.1729786
  37.9110910  57.1910731  55.2144920  38.1498251  58.0539327  54.8758017
  37.4297960  56.7772961  54.4979897  79.9907855  50.6564450  79.0765504
  79.1863726  50.1379858  79.0953067  79.6907379  51.5650690  79.1011606
  11.3172176  33.2079216   0.4741018  10.6437642  33.8549427   0.6839970
  11.4277321  32.7065460   1.2819637  27.7154424  15.2768990  74.9844178
  27.6224740  14.6120431  75.6667340  28.1806422  14.8305618  74.2768841
  52.6520896   0.0449385  57.7668265  52.4482614  -0.1696767  58.6771156
  52.1403233   0.8334372  57.5862803  56.1581606  39.1626736  14.2712229
  57.0146928  39.0291962  14.6771393  56.2446159  39.9888763  13.7956742
  81.3996423  55.0512814  68.3103404  81.5437216  54.2006693  67.8956936
  80.4947182  55.0163905  68.6203837  55.7113330  32.6780384   0.2224150
  55.3986958  31.7742489   0.1817418  55.0656142  33.1306515   0.7650202
  66.0906571  14.1746030  47.2543716  66.5513981  13.3639799  47.4707965
  65.1648649  13.9634183  47.3749609   1.7262169  27.3189925  77.3954031
   1.3979666  27.1416811  76.5139020   2.0560321  28.2165343  77.3521295
  48.4834898  60.2162004  26.4368986  47.8212685  60.7683764  26.8525865
  48.1134995  60.0020093  25.5804751  21.2751815  32.9002697  67.2068417
  20.6566019  32.9021072  66.4763708  21.8110517  32.1199234  67.0649447
  17.6617073   8.5543864  57.9818529  18.0490109   8.8954170  58.7880327
  17.0689724   7.8623137  58.2749955  20.7652083   2.5195584  12.7339468
  20.3867597   3.0951216  12.0693149  21.7015039   2.5075520  12.5353562
  15.6085276  11.2234544  76.5882401  16.0726815  11.9758716  76.2212779
  15.0497621  10.9154460  75.8746970  11.0687114  21.8891749  76.6672917
  10.3365461  21.4513501  76.2331544  11.2950510  21.3115265  77.3962118
  20.7667064   5.4800327  27.7205487  21.5906483   5.5160781  28.2064009
  20.9741614   5.8635071  26.8684092  36.4611601  16.4432827  74.8528340
  35.6004607  16.0270080  74.8991349  36.8859624  16.0319719  74.1001068
  68.1870677   1.2197212  63.6356466  68.0690763   1.4683395  62.7188594
  68.7047106   0.4153121  63.6009519  76.0086026  21.8255917  28.9288795
  76.0481857  21.0073170  28.4338122  75.3769888  21.6528109  29.6270504
  82.0063176  38.6545503  49.0032598  81.4360813  39.3896997  48.7782761
  82.8234502  38.8342072  48.5382335  44.9513299  35.8395323  29.6563803
  44.5413231  36.4708499  30.2476200  45.8615578  35.7935278  29.9489561
  30.9219243  15.5408593  15.4380950  30.0791019  15.8397646  15.0967185
  30.7029564  14.7962471  15.9983070  61.0879569  57.7313603  44.4727084
  61.8278027  57.5236347  43.9019982  60.4912459  56.9898948  44.3707440
  74.5000022  37.1087527  24.0607499  75.3724683  36.7713942  23.8577130
  73.9933555  36.9583712  23.2626732  83.9394748  17.2625335  21.3814109
  84.1871897  17.9059318  20.7174020  83.6948277  16.4840410  20.8810819
  13.2296220  53.8483390  82.7829008  13.4380268  54.7508477  82.5414940
  12.5891118  53.9311902  83.4893809  85.4065354   9.9811137  67.9422264
  85.0023195   9.1160491  68.0093428  85.1571789  10.4255172  68.7525095
  35.9080848   8.2451852  72.8215694  35.2201362   7.8526877  73.3590676
  35.7833349   9.1886435  72.9243099  45.2818455  48.1293755   8.1305155
  45.4701014  47.4217319   8.7469830  44.5121330  47.8280811   7.6478188
  17.7353459  10.9038390  82.6557834  18.3359987  11.6316391  82.8162675
  16.8642521  11.2982811  82.6987115  72.8289402  33.6004647  27.1710237
  73.4845794  33.8603330  27.8182003  72.7791482  34.3430174  26.5690535
  39.7103689  58.8529105  26.8652376  39.7897950  58.0701366  27.4103875
  39.1318700  59.4323708  27.3610163  62.4660431  33.6702398   1.9981358
  62.9573964  33.0853575   1.4213200  62.6175766  34.5442490   1.6384450
  50.0878343  62.6981878  83.8931420  50.1646494  63.5291832  84.3619467
  49.1981492  62.3988576  84.0804750  61.2212438  47.0633741  69.7283000
  61.1684468  46.8158617  70.6514370  62.1584281  47.0634695  69.5335764
  34.0863849  60.4501703  32.8191805  33.7883785  60.7760490  33.6684314
  34.9299158  60.8806644  32.6800321  71.5738880  36.4741747  53.8840063
  72.3716361  36.8207987  54.2836080  71.5380666  35.5622809  54.1727941
  64.4597955  22.9161704  24.0353892  65.1838314  23.3336738  24.5019670
  64.8473579  22.6121278  23.2146667  49.7888157  67.6092967   8.6785890
  48.8635435  67.3797961   8.5923760  50.2101207  66.8004678   8.9693289
   6.5875108  31.5420372  29.8174799   6.2241910  30.6566346  29.8345902
   5.8281143  32.1146699  29.9253712  87.0088718  32.9359604  49.7378933
  86.8006721  32.5750216  50.5996403  86.3696137  33.6370238  49.6110428
  76.0982538  33.7873712   9.5659939  75.7674466  34.1873059   8.7617237
  76.6245650  34.4738091   9.9759102  37.2484082   1.5335468  63.2496122
  37.3250820   1.3648009  64.1886956  36.6085089   0.8914070  62.9423385
   2.6164735  28.6850229  38.5754712   2.8653416  29.5561470  38.8844036
   3.3719464  28.3853388  38.0698211  66.4238699  63.3468181  23.6126533
  66.0846226  64.2379828  23.5291751  67.3013382  63.4578753  23.9786418
   4.9789364  45.2674625  68.2347433   5.8264373  44.8875992  68.0030581
   4.8402513  45.9573488  67.5858557  53.2130196  26.5049252   3.7514302
  53.5531746  25.7511159   4.2334030  53.9255734  27.1437342   3.7719724
   0.2747359  71.0078853  79.5601860   0.1527724  71.4454740  80.4027255
  -0.1841530  71.5655886  78.9319982  80.9238289  65.4195831  10.0895836
  80.4594798  64.6178091   9.8492291  81.0524982  65.8796601   9.2601227
   9.6991935  43.6043204  81.3328733   8.8949880  43.8338630  80.8672602
   9.7212137  42.6475307  81.3155367  44.1961456  38.9180804  14.7653432
  44.8777677  38.3101081  14.4789993  43.3764086  38.4479912  14.6127681
  33.9571694  17.4441834  88.7685483  34.8526596  17.6263448  89.0534102
  33.4492138  17.4148178  89.5793200  45.5743109  62.7610546  87.1512521
  45.1949754  62.1478301  86.5217348  44.8202724  63.1256931  87.6146056
  81.2744857   0.9040697  18.5813614  80.3773805   0.5956400  18.7090530
  81.4388927   1.4787190  19.3290112  83.0355778   7.5548090  52.0158567
  82.1506214   7.3733814  51.6993633  83.3629024   8.2394908  51.4325032
  45.7075636   7.6649522  89.1812114  46.5939983   7.8277756  89.5036300
  45.8175212   7.5187909  88.2416487  35.0046839  30.7087412  82.9509033
  34.2940642  31.1189505  83.4438332  34.5788019  30.3446712  82.1748174
  76.8624025  63.3033567   3.0643814  76.3815736  63.9314653   3.6033758
  76.7817756  62.4733655   3.5343237   2.6440945  49.8842801  47.8881621
   3.2560976  50.5919846  47.6860770   2.7906816  49.2366879  47.1986925
  48.4605111  56.1894095  50.3526831  48.1768200  55.3266636  50.0503244
  48.3751734  56.1493736  51.3052304  62.0066404  52.5801692  75.4340780
  61.2330319  52.6383945  74.8733895  61.7022499  52.8722952  76.2932874
  75.3980443  25.0992253  55.3319384  75.9825379  25.6514535  55.8512101
  74.6964253  25.6880437  55.0539895  37.4026760  58.5921328   8.3553948
  38.0014360  58.3364998   9.0570857  37.7882686  58.2178328   7.5632775
  42.3920783  20.0298491  86.0502563  41.5879817  20.4576690  86.3445870
  42.4880216  20.3021577  85.1376366  81.7162366  51.6911374  85.4498225
  82.3096596  51.8128635  86.1909459  80.9328452  52.1877937  85.6861743
  14.7534174  59.2833767  29.7852619  13.8888501  59.4725620  29.4206194
  14.8910952  59.9661806  30.4418101  75.2959065  24.3707722  59.8980871
  74.3485534  24.2934574  60.0111198  75.6198281  24.6286897  60.7610965
  60.9590210  61.3832130  50.4370540  60.3070918  60.6991136  50.2846462
  61.1899309  61.2923295  51.3615282  80.4977948  30.1529540  20.6482573
  80.9838706  29.7978442  21.3924745  79.5874204  29.9121406  20.8198943
  86.7494896  31.3064604  17.8525467  85.8211976  31.4090418  17.6428254
  87.0016942  30.4863480  17.4282351  76.1575082  19.8616883  49.4633615
  75.5558054  19.1439060  49.2659427  75.5873156  20.6022220  49.6700546
  69.5768234  69.7920070  81.5496635  69.1431929  69.3126677  80.8436676
  69.7540388  69.1282641  82.2162008  74.0082308   0.0818594  55.4472967
  74.5131628   0.8250204  55.1171646  73.1224097   0.2277039  55.1152090
  16.6394148   3.5993679   1.9251092  15.8005079   4.0473283   2.0337303
  16.4128662   2.6697414   1.8986135  80.4535324   3.8967004  80.9722393
  80.2028228   3.9567479  80.0504091  80.2121119   3.0066352  81.2286215
  73.7323334  16.5199428  38.0645475  72.9073186  16.4235208  37.5888531
  74.3995432  16.2100726  37.4521396  39.6371370   6.0326732  77.0171529
  38.8561404   5.5127825  76.8274431  39.9722403   5.6708842  77.8375470
  84.3601860  18.8701545   1.2980017  84.5882003  18.9739691   2.2218328
  84.2491313  19.7649515   0.9766967  59.5526014  37.4111462  69.3193311
  58.7758109  37.9609635  69.4219434  59.8330420  37.5589422  68.4161471
  42.0640648  -0.1513172  79.3096695  42.2424840   0.6143032  78.7635708
  41.1109461  -0.1666200  79.3966316  84.8327555  56.4183414   8.1392551
  84.2699403  56.9635700   8.6889793  85.0936124  55.6938483   8.7078456
  38.2284354  26.8753561   1.2993189  39.0458917  26.9728870   1.7876679
  38.0170243  27.7618701   1.0066926  57.5623656  12.4460498  16.3139421
  56.9995439  13.2200979  16.3316379  56.9554404  11.7074536  16.3624113
  25.6075809  60.8338467  60.1338471  26.3674350  61.3279344  60.4416312
  25.3355799  61.2857331  59.3350693  11.6840655  46.6742056  37.4495406
  11.4054250  46.7771248  38.3594851  12.2138289  45.8769714  37.4499842
  52.1237587  30.7355725   0.3032254  51.4977225  30.2809224   0.8667888
  52.3939730  30.0759195  -0.3355812  69.8716701   2.7895536  67.6205559
  69.3370952   1.9955391  67.6221090  69.6960624   3.1948576  66.7713666
  71.0446572  71.3134343  60.8631323  70.8667530  70.6014319  60.2486125
  70.2172222  71.7909981  60.9224278  53.4782615  30.0192836  75.4785570
  52.8973069  29.5260291  76.0577146  54.3585883  29.8249621  75.8002643
  20.6222535  38.5908026   3.0384116  20.5696848  38.1200030   2.2066568
  21.0709398  39.4084015   2.8229016  20.3326819  35.7046236  59.9931135
  20.4816133  36.6484930  60.0493425  19.3805540  35.6102933  60.0211521
  10.1947010  62.2160429  59.8324620   9.5558186  62.8926605  59.6082975
  10.2272696  62.2248865  60.7890669   7.6654878  48.2273478  33.6472007
   8.4275272  47.7825551  33.2761384   8.0354089  48.9216450  34.1924911
  14.6733060  55.9677782  42.9616030  14.9787504  55.5353297  42.1641547
  14.5317349  55.2531027  43.5824318  29.3866694  60.7241309  52.0047181
  30.0481721  60.3551312  51.4194957  29.8799650  61.2940296  52.5947238
  65.9489274  49.5494225  85.0616392  65.6081049  50.1867480  84.4340343
  66.5896034  50.0396590  85.5768424  69.3963057  51.3280391  48.5718940
  69.0856135  52.2298994  48.6515818  69.9412653  51.3311015  47.7849750
  55.6910669  36.0297441  56.1687894  56.2248354  35.6994497  56.8914432
  55.0522979  35.3356665  56.0061170  84.2598455  27.8757018  30.2262396
  84.7155856  27.7445489  31.0577032  84.9520405  27.8428532  29.5659223
  50.2603498  10.9175681  31.0780380  50.1050717  11.6480067  31.6768536
  50.4235314  10.1685100  31.6512008   6.5951948  32.3017627  70.0927038
   7.3095231  31.6873495  70.2614150   5.8003222  31.8015281  70.2775679
  61.4983176  33.5532825  26.4859009  61.8108848  32.6532525  26.5779858
  62.1450644  34.0805915  26.9548311  62.3331977  38.6396390  76.6647432
  62.5615493  37.8262057  76.2148393  61.4717152  38.4690465  77.0455030
  83.8486942  58.8476044  53.3694841  84.4719592  58.5564201  52.7039134
  83.1302870  59.2368745  52.8708944  17.8418237  26.3454990  79.9174660
  18.3520859  27.1008887  79.6254887  17.2559966  26.1545838  79.1849431
  65.6518372  71.4861944  24.1738232  65.0624024  70.7343049  24.1149963
  65.0821002  72.2196093  24.4056294  47.0940775  43.2755426  64.0626027
  47.4024264  43.8880725  63.3948004  47.3613412  43.6711936  64.8922184
  30.6433976  33.5202764  16.7721146  30.4627246  34.2514087  16.1813230
  31.0819695  32.8708895  16.2224026  38.6660768  -0.0116026  24.0569425
  37.7253335  -0.0294303  23.8811128  39.0352069   0.4962060  23.3343740
  33.8753485  27.1136879  82.5650059  32.9960556  26.8882588  82.8687450
  33.7588236  27.9298115  82.0785946  20.5850050   6.2409901  70.8074338
  19.8300800   6.4111676  70.2440868  21.3170572   6.6678740  70.3623478
  58.0448139  38.1967793  32.4560035  58.8967268  38.2482856  32.0226176
  57.4160172  38.1137444  31.7390992  77.0184758  30.4038803  57.0510676
  77.0601988  29.9983839  57.9171298  77.9070948  30.3214618  56.7049529
  22.8123679  14.6885065  17.3786375  23.1279193  13.9033054  16.9312915
  23.2912192  14.7007795  18.2073610  36.6866703  66.2451815  61.7850827
  36.3423622  66.8917644  61.1689542  36.3268931  65.4111865  61.4830158
  65.4232985   0.4468023  83.7913218  65.4177692   1.0269404  83.0299802
  66.1227476  -0.1807528  83.6091757  86.5786586  59.3727343  33.9204821
  87.5047249  59.1594857  33.8057734  86.1126006  58.6498489  33.5004124
  38.8275937  60.9126111  64.9226879  38.6545547  61.5243447  65.6382795
  38.9755724  60.0722722  65.3564674  25.9982710  71.5484792  22.8146653
  25.5738225  71.1125566  22.0757154  26.1551430  70.8480978  23.4479811
  81.9665206  45.8025169  39.6819431  82.6652841  46.2407814  40.1676238
  82.0554737  46.1296030  38.7867706  11.7171776  22.5337624   5.9278217
  12.6204776  22.2798375   5.7386046  11.4425625  21.9394086   6.6260782
  31.4704522  67.1318695  12.9769777  31.5325558  67.5632644  12.1247609
  32.3396958  67.2385338  13.3633327  46.2774113  11.9954708  87.0643614
  46.4586976  12.9287028  86.9528035  45.3230292  11.9410952  87.1136561
   0.7874055  21.0861120  30.5890778   1.5270079  21.0045800  29.9869377
   0.9226229  21.9291655  31.0217543  77.2281231  51.3277138  17.5357822
  77.0892331  50.9897519  18.4204987  77.9631691  50.8167640  17.1968582
  83.0923184  67.6380286   7.0551135  83.8056679  67.0146931   6.9179378
  83.4990246  68.4967521   6.9392869  57.4979714   8.4839949  83.0133148
  57.2389337   9.3850281  83.2063705  58.0323960   8.5527043  82.2221756
  44.1941127  22.6210762  24.3736777  43.4309811  22.7435210  23.8089926
  44.5354261  23.5048957  24.5100594   6.3497889   7.4661086  67.6433052
   5.8516917   6.6987165  67.9248019   7.1976244   7.3739898  68.0779557
  80.0749182  69.4884571  10.3720692  80.3968265  68.9433764   9.6540902
  80.0136274  68.8910536  11.1174444   2.8397767  34.1744166  77.0191517
   2.2599470  34.0603217  76.2661499   2.3713651  33.7646134  77.7463956
  22.0259787  62.2830912  16.6552533  21.9549169  63.2055101  16.9008655
  22.0203437  61.8122174  17.4886067  18.2856999   9.7622076  17.7312570
  18.1972167   9.1569001  18.4674672  17.4231990  10.1695083  17.6510689
  -0.1727002   5.6129044  50.4234385  -0.4390941   6.4265634  49.9953904
   0.6958091   5.8022764  50.7784902  44.7489912  44.4889189  29.8985662
  44.0205446  43.8687251  29.8676312  45.4005037  44.1231916  29.3002294
  54.6723903  22.2540207  66.6917487  54.3054433  22.0753988  65.8259104
  54.5612603  23.1974906  66.8089936  67.2448806  66.5256049  11.4144295
  68.0396328  66.1243323  11.7659705  66.6835145  65.7847855  11.1857671
  62.9311296  54.1850455  54.5805813  63.0908124  53.3867444  55.0840181
  63.6729585  54.2407589  53.9782377  33.7226372   0.2842474  71.9616321
  33.1612002  -0.1181169  71.2989683  33.1721982   0.3350946  72.7430816
  65.5898929  49.8446386   3.9147676  65.5396343  49.0941775   4.5068099
  64.6898326  49.9748249   3.6161460  62.3191497  19.3904810  79.6966046
  62.3511659  18.8610386  78.8998000  61.4178935  19.7105779  79.7354259
   4.0147405  60.6103562  39.6927779   4.7500534  60.5500112  40.3026182
   3.4697012  61.3146357  40.0437115  72.7238129   6.6779862  67.8429314
  73.2308620   7.4892584  67.8740842  72.9525212   6.2847892  67.0007198
  42.9254675   2.3880523  70.2631594  43.3968675   3.1312729  69.8868123
  42.0012538   2.5974127  70.1281436  68.4811331  46.4385870  10.0767957
  69.0306074  46.0145108  10.7359385  68.7883885  46.0819065   9.2433660
  20.0178863  54.3617083  22.4781522  19.9581787  53.4212443  22.6460641
  20.0559998  54.4327702  21.5243549  61.2784929  33.4722998  21.8047982
  60.7945400  32.7496290  21.4050880  60.7650408  33.7056107  22.5782093
  67.0246234  62.9864985  36.0264116  67.1337996  62.8140916  36.9616059
  67.9179974  63.0530739  35.6892434  70.1122521  16.3589205   3.4463582
  71.0670260  16.3347197   3.5100215  69.8456282  17.0129179   4.0924471
  68.0245623  15.4068074   1.9822369  68.7423056  15.6051772   2.5836733
  68.1142652  14.4708863   1.8026903  71.7822686   3.8972106  32.1591051
  70.9019435   4.2723509  32.1360961  72.1752672   4.1572075  31.3259272
  70.4855111  23.6565530  54.2743424  70.3227627  22.7135372  54.2527536
  70.9880642  23.8311521  53.4786117  14.7835712  62.1961305  27.5342213
  15.0235598  63.0809451  27.8094312  14.5388268  61.7510562  28.3455418
   9.2959860  19.8621523  76.6281506   8.7732351  19.8144118  75.8277231
   8.6785878  20.1499556  77.3006241  60.4881001  53.3572946  47.6586313
  59.8484258  54.0653834  47.7338573  59.9668084  52.5565288  47.7157353
  71.4710358  15.1940134  10.1055916  71.6284840  14.5201299   9.4442876
  71.1073252  14.7171487  10.8516121  38.5537124  62.2317522  54.8937098
  39.1160670  62.0140738  55.6370840  38.3699029  61.3894941  54.4777203
  65.0225362  61.7834817  59.9600358  64.2817947  61.4539367  59.4511803
  65.1847094  62.6586000  59.6077578  68.3121970  44.2904173  32.5257255
  69.1021420  43.7507341  32.4947289  68.6012297  45.1550425  32.2339804
  61.0466830  68.5035927  58.2231609  60.2698193  68.0084753  58.4831098
  60.7149067  69.3762083  58.0117408  21.8718304  42.9203642  69.6716790
  22.6820198  43.2931655  69.3240525  21.1766873  43.3573534  69.1796948
   7.2686238  48.9535299  79.3582211   7.5427363  48.8275148  78.4498080
   6.7385583  48.1818612  79.5576953   0.3688443  15.6743567  70.7810686
   1.1156368  16.2659156  70.6883822   0.6888872  14.9713520  71.3463905
   0.4748585  66.9615535  59.5554301   0.8383605  67.5464250  58.8905817
   1.2210117  66.4380175  59.8476584  13.2018691  53.6933372  32.0808074
  13.5059754  53.7477310  31.1748314  13.9175941  54.0649742  32.5964192
   8.3232511  65.4416839  17.1579626   8.2981531  64.8797160  16.3834989
   7.5890694  65.1429186  17.6945708  30.5422569  18.5387313  17.9876738
  31.0167810  18.5133068  18.8185843  30.9872522  19.2160811  17.4783525
  48.5487708  65.9356757  42.2669217  49.3004999  65.9332042  41.6743602
  48.9336648  65.8927881  43.1422782   6.0171508  62.0448451  52.8320333
   6.4707868  61.2103088  52.7137315   5.7983679  62.3265532  51.9437729
  59.6357809  34.2687025   7.5212169  59.5965654  33.9832477   8.4340200
  59.8137555  35.2078715   7.5714019  43.7389101  31.4606002  24.6419964
  44.4493324  30.8658638  24.8824552  42.9403068  30.9820538  24.8643877
  26.6557646  43.4520723  69.1740848  27.0481453  43.7304326  68.3465676
  25.7835115  43.8462686  69.1701381  31.4944678  63.1383585  22.2009966
  31.8219683  62.9322167  21.3255077  32.1974479  62.8647937  22.7902446
  58.2895819  59.7022870  88.4644501  59.0275797  59.2264978  88.0833784
  57.5884281  59.6136289  87.8188846  72.0530729  20.9649906   5.7068716
  71.7025739  20.6072148   4.8911640  72.8523276  21.4215557   5.4442464
  15.1171133  10.2147624  79.1002484  15.6869380  10.3584877  79.8558109
  15.5629833  10.6552265  78.3767685  -0.0006735  34.7476451  11.6564456
  -0.2943058  33.9173545  11.2814396   0.7215730  35.0232853  11.0919862
  52.8271783  42.5181778  74.2122784  53.5415586  42.5387391  74.8490436
  52.9132044  41.6668630  73.7832162   7.9059563  45.1044265  65.2907838
   8.4100626  45.3732180  64.5227605   7.9802150  45.8421127  65.8962064
  74.7926982  19.7164451  35.4836879  75.4491225  19.1584448  35.0665852
  75.0406198  19.7279249  36.4081525  37.9050252  53.2466358  77.1935128
  37.9485325  52.9212530  76.2943660  37.7890733  54.1922412  77.1006826
  78.0084613  13.3747713  16.2809364  77.1549835  13.4491145  15.8539932
  78.6408899  13.4445460  15.5658159  68.1279808   5.7283135  49.3928947
  67.7408921   6.5890113  49.5528745  68.2473464   5.6920300  48.4438598
  11.5124259  66.5318466  84.7823854  10.5966386  66.3323210  84.5880789
  11.7050128  67.3085023  84.2570779  49.1905099  18.6002684  81.7705132
  48.9092058  19.2759741  82.3873776  49.4401605  19.0838021  80.9830478
  84.8458756  27.8422847  65.0981866  84.8623287  27.2281655  64.3641438
  83.9261793  27.8764849  65.3612854  63.1387030  32.5194001  35.0903238
  63.1608675  32.9733275  34.2478925  62.2170998  32.2937247  35.2166172
  55.2248329  10.6893765  54.2920194  55.1266513  11.5199493  53.8264648
  55.6185910  10.9299669  55.1306508  73.5205327  59.9432620  43.0754367
  73.6535056  59.0090102  43.2358224  73.0677682  59.9795687  42.2328704
  56.2735172  67.2211249  74.4686295  55.4625962  67.0660356  74.9529706
  56.0063114  67.2260813  73.5494949  78.3196623  61.6095807  35.2422972
  78.9063863  62.1348250  34.6981416  78.1112272  62.1757854  35.9853981
   1.7926931  13.0053282  36.3651381   1.3989770  13.8361659  36.6314615
   2.7115638  13.2174207  36.2010487  46.8236934  68.7652716  35.7610043
  46.0832012  68.5142781  35.2088218  46.7338393  69.7124250  35.8661643
  66.9701930  20.8941258  85.0340254  67.3335773  21.6369551  85.5160920
  67.5064009  20.1483718  85.3034024  82.3096160  40.0733409  10.6035787
  82.7467258  40.5893047   9.9261215  83.0124701  39.8182439  11.2012019
   2.3921512  16.8191631  78.0133958   2.6999893  17.6435032  78.3901330
   1.4876315  16.9967250  77.7554273  52.0404760  69.9463177  52.5287884
  52.9079372  69.5664170  52.3894383  51.8672826  69.8125180  53.4606326
  55.4934360  32.5864478  84.8920520  55.7877082  33.0349318  85.6848305
  55.6862454  31.6629163  85.0537491  43.5747979  12.4972424  80.9313148
  43.7326605  12.3900142  81.8692985  42.8197515  13.0834192  80.8809809
  46.8718550  42.3369971  46.9365819  46.3601613  41.6946489  47.4283035
  47.0096790  41.9295282  46.0814764  73.1576744  49.1241910  36.9396615
  74.1135541  49.0836307  36.9099865  72.8783359  48.2089028  36.9184647
  10.1109846  35.2597744  86.8731419  10.2390189  36.1882582  86.6788309
  10.2016133  35.1993775  87.8241259  31.9604535  43.9004800  13.4935264
  31.5752090  44.6718820  13.0778854  31.8775571  43.2083998  12.8374889
  51.0709339  33.4159709  44.5666191  50.8656156  34.2793462  44.2079280
  50.6764144  32.8000821  43.9491508  34.1478617  44.9063904  32.3915887
  34.5037957  44.7987816  31.5095665  33.5513593  44.1658412  32.5011491
  35.4748429  21.0110381  70.9880423  34.5758023  20.6918240  70.9101946
  35.8951489  20.3983188  71.5914905  62.3937790   8.1227461  56.8259095
  62.0651842   7.3442533  57.2755830  62.6685219   7.8045522  55.9659672
  46.6012812  15.8728788  76.4816676  46.4079188  16.7537935  76.8023418
  46.8209133  15.9969614  75.5583057  36.8744458  62.2996059  42.4047568
  37.1787068  62.5095852  41.5218265  37.3638775  61.5131787  42.6460466
  62.0906453  40.0693200   9.3448951  62.0613139  40.3409888   8.4275252
  62.8601247  39.5029114   9.4024675  74.5992941  71.3123572  32.3097145
  73.8685435  71.8643510  32.5881714  74.9668570  70.9721311  33.1254201
  51.5797704   9.9510123  60.3324564  52.2638304  10.6175982  60.2695510
  51.3604129   9.9200654  61.2636687  38.2614934  47.3500608  36.6253582
  39.0084693  46.7525233  36.6601097  38.0208326  47.3790347  35.6993589
   2.0183973  20.1811118  58.0048997   2.7505393  20.7586625  58.2208515
   1.3021954  20.4831995  58.5634958  47.0039626  55.2739524   9.6780650
  47.5632717  54.5162870   9.8493778  46.1192763  54.9690071   9.8794859
  83.7123983  28.8956151  35.3937908  83.9831262  28.7148339  34.4936484
  83.6621054  28.0334317  35.8065161  82.3816009  68.9722356  47.1356876
  81.5801832  69.0874646  46.6251155  82.3790920  69.7032429  47.7536308
  63.7086908  14.6653237  88.7558908  64.0598241  13.7764389  88.7027769
  64.3138604  15.1934145  88.2351973  44.6260923  60.3876771  27.5184689
  45.2998242  61.0674390  27.5339926  44.0866148  60.5675191  28.2884382
  22.5815836  11.2516722   3.8071969  23.0105826  11.6946661   3.0751122
  22.9760033  10.3796697   3.8238268   7.3529219  19.0123164   2.3782887
   7.1044978  18.3105335   2.9799681   6.6752361  19.6782978   2.4942312
  54.3363292  32.3068992  28.2302670  54.6114362  31.3957675  28.1283498
  53.7955852  32.4814137  27.4599604   9.3773436  21.5249921  59.1200760
   9.7759606  21.7763296  58.2869098   9.4947476  22.2906621  59.6823905
  22.1287142  66.6457276  66.1728693  21.6945058  66.4307259  66.9983807
  21.4123336  66.7638616  65.5491104  38.6159855  65.3448014  55.7722626
  38.1407669  65.6328591  54.9928899  38.0381596  64.7000204  56.1804372
  80.3467502  46.7867273  34.5449609  80.1844298  46.3173139  33.7267097
  79.8633275  46.2906759  35.2056177  75.6232910  20.2546434  81.5012660
  75.9046188  19.5109356  80.9683634  74.9293076  19.9014958  82.0579576
  71.3949800  51.1125594  57.1007319  70.8714538  50.3330454  57.2865011
  71.1280739  51.3760478  56.2200691  60.0843111   8.6014045  47.1327808
  60.7634618   9.2358594  46.9037541  59.5418110   9.0539210  47.7786557
  25.6987335  62.1092653  46.9926599  25.3855405  62.4971458  46.1755365
  25.8643066  61.1921062  46.7744017  73.8943107  23.2622136  66.1951165
  73.1383950  23.3960918  66.7668681  74.6227387  23.1012635  66.7948828
  66.1794193  11.6805796  41.4571394  65.6347365  11.2741580  40.7830667
  67.0221602  11.2321969  41.3866227  60.2353317   9.6116119  39.6977227
  60.5151429  10.1743755  40.4196885  60.5256763  10.0708548  38.9096695
  21.2925131  38.6315753  62.4371792  21.1117654  38.6614685  63.3766835
  22.2453628  38.5616531  62.3786962  76.9514211  50.6721332  46.1013021
  77.3672651  51.2715193  46.7210132  76.7523841  51.2158223  45.3390565
  60.9156140  38.1880027  13.1938601  60.6538037  37.8556856  12.3352259
  61.5737702  38.8559306  13.0016766  55.8409567  13.8222293  20.6974647
  55.5798407  14.5878477  21.2092056  55.3912206  13.9296001  19.8593472
  25.2609344  61.8756922   1.9530884  24.5313123  61.6483494   1.3767217
  25.6325223  62.6690941   1.5675138   8.9414933  47.3314487  58.1508652
   9.1879191  46.9991907  59.0140631   8.4264958  46.6253195  57.7604923
  20.7137456  28.7640977   0.7099041  21.2637146  28.4952956   1.4457787
  19.8220315  28.7434549   1.0572537  10.6819249  49.0927473  75.4907944
   9.9998736  48.6757374  74.9643530  11.4962394  48.8942827  75.0284790
  53.7811465  62.5270964  43.6448197  53.1170407  62.8042657  44.2759873
  53.4421922  62.8166817  42.7977764  29.0954953  66.0442751  30.3670574
  29.1134627  65.1111315  30.1545672  29.9845388  66.2396600  30.6631288
  50.5646857  22.2683046  16.6199951  50.5488945  22.1960092  15.6656598
  49.6425800  22.3198743  16.8715770  50.6729622   6.0016746  66.6350447
  50.8330610   6.5393686  67.4105995  49.8316629   5.5785225  66.8064789
   0.5239143  46.0479541  22.9218211  -0.0437001  45.3009707  22.7319225
   0.7796934  45.9280089  23.8363822  61.2676151   7.5927702  21.3549170
  61.0405569   7.2876796  20.4765116  60.7512971   8.3901661  21.4724219
  74.1618104  67.4849338  64.5792285  73.6649614  68.2446388  64.8829078
  74.1319864  66.8705042  65.3125897  12.6081127  61.7558405  37.8677174
  12.6077596  62.6998257  38.0262220  12.7454094  61.6714564  36.9241811
  48.6608247  39.9775678  37.5435693  49.0795706  40.4946313  38.2317037
  48.1307070  39.3353548  38.0155540  58.5648129  67.7371396  75.5488701
  58.5117400  68.6909117  75.6099751  57.6885775  67.4655147  75.2756241
   4.2756426  57.1880074  19.7804416   4.2969160  56.2369010  19.6747255
   4.6876135  57.3438073  20.6302876  45.8160609   2.8473863  59.7557981
  45.2173981   2.8477267  59.0089149  46.0067641   1.9220499  59.9094751
  64.2295954  34.2636722  61.8346066  63.4684722  34.7409175  62.1650005
  63.8671725  33.6428106  61.2026159  74.5133602  35.6847451  71.5858473
  74.2832139  34.8604198  72.0145107  73.6734694  36.1173411  71.4319771
  70.5689001   8.5409170   8.7020197  70.2369539   9.1881639   8.0798340
  69.9139586   8.5215867   9.3998089  60.3394568  58.3006014  58.6490877
  61.0983811  58.7748257  58.3094157  60.6196741  57.3856416  58.6727230
  50.9310453  48.1022292  10.6386307  51.5787777  48.7130625  10.9901378
  51.0623660  47.2983432  11.1413771  68.2898104  12.6577590  28.2460510
  67.5854327  13.2080113  27.9035509  68.9685636  12.6903723  27.5719129
  23.1291649  54.8331162   4.9611351  23.6322932  55.4018014   5.5439652
  23.3737799  53.9454462   5.2227402   3.4903228  64.5140996  38.6001862
   2.6130846  64.8739860  38.4691644   3.4373423  64.0526198  39.4371219
  -0.0498882  60.8752780   9.6449648  -0.1900898  60.4522839  10.4921079
   0.3579461  61.7139684   9.8606066  19.7918992  19.5383944  87.1243543
  19.2294776  19.6095744  87.8956177  20.3849792  18.8147396  87.3263737
  63.0150195  30.2053858  29.4213184  62.2611891  30.0809393  29.9979331
  63.4416806  29.3488905  29.3966600  62.0789240  10.3664600  46.2816223
  62.4854315  10.0487953  45.4753514  62.8161223  10.5762016  46.8550149
  14.7717143  46.0189225  60.8688237  15.6784951  46.3081102  60.7670846
  14.6082811  46.0699331  61.8105876  59.4269702   7.9561262  69.7045989
  59.1448468   8.6508727  70.2995489  59.8938487   8.4142060  69.0057290
  79.9895070  59.6444725  48.2061123  79.8274939  60.4107490  47.6558361
  79.1397912  59.4494161  48.6012931  82.4513410   8.0797693   9.4098571
  82.9619137   8.8774427   9.5486539  82.6311963   7.5429391  10.1816714
  72.7928336  18.9858705   0.9136033  73.4520907  19.5896420   1.2557612
  73.2184474  18.1287898   0.9359069  63.7551779  21.7653936  76.7746355
  64.6789585  21.6791300  76.5392212  63.2812949  21.4880245  75.9905863
  18.9087438  64.3092425  38.1163818  19.2246659  63.8373719  37.3458215
  19.4257452  65.1146470  38.1326636  83.5180617  41.1627494  73.4586738
  84.0756921  40.4876050  73.8452747  82.8944587  41.3834272  74.1505209
  83.2229509  59.9149656  41.1028968  82.8013472  59.0703870  41.2615443
  83.7706048  59.7681680  40.3316915  69.4591686   2.4515102  38.5585471
  68.7977826   3.1117720  38.7655608  70.2365501   2.7314739  39.0417967
  82.7157329  16.8473083  56.1043917  82.9799195  17.7015572  56.4459997
  81.8375521  16.7086774  56.4590914  83.1967717  22.0351396  62.8518998
  82.9938221  21.4744200  63.6006566  83.4495765  21.4260578  62.1581123
  78.3721662  48.2647011  26.9993933  79.2262834  48.6764974  26.8684757
  78.1386392  47.9185074  26.1380880  41.1389889  17.7998195  11.5853818
  42.0518810  17.8520657  11.3023090  41.0193611  16.8850760  11.8406570
  46.1870512  62.7443717   1.8720612  45.2676778  62.4797553   1.8410359
  46.3496424  62.9376076   2.7953466  63.2798598  43.5148348  48.2680909
  62.9168782  44.1217015  47.6229638  64.1660892  43.3340801  47.9547909
  39.0820407  62.2608103  12.8459770  38.6432310  61.7629792  12.1561640
  38.8343357  61.8162936  13.6567044  23.4249533  49.4244303  32.8441326
  22.6945586  49.9290885  32.4862563  24.0696288  50.0842843  33.0995109
  56.1712014  10.6183573  75.5867714  55.6235302  10.4809778  74.8138452
  55.6967476  10.1854648  76.2965104  72.4906339  59.5842783  84.9526112
  72.4881447  58.6382855  85.0986363  72.6578994  59.9596334  85.8171126
  18.2732344  24.1122119  61.2053722  18.0072299  24.4763938  60.3610707
  19.1076186  24.5397193  61.3984326  23.2753710  53.7479930  50.3079524
  23.6754580  53.9380655  49.4594039  23.4723977  54.5166961  50.8432168
  16.8270646  69.8250821  50.9212308  17.2914904  69.8778421  51.7565492
  17.3327780  70.3830744  50.3303582  10.4784868  62.0516882  42.1688189
  10.7805117  61.6346673  42.9757305  10.5784935  61.3761166  41.4981226
  14.6333101  23.8392476   8.0016349  14.3662542  23.6749898   8.9060310
  14.3888503  23.0422735   7.5312058  47.8671141  38.0135809   7.4161188
  48.2901783  37.2563940   7.0112526  46.9308326  37.8219422   7.3624217
  48.2276766  22.0702625  25.3653889  47.4787517  22.2643231  25.9290234
  48.4133188  21.1447244  25.5239703  30.1109974  50.9258364  30.6661464
  30.2667209  50.0832997  30.2393984  30.1238526  50.7262011  31.6022085
  20.2467152  51.1138855  40.2331276  19.7414686  50.4462591  39.7691958
  21.1595437  50.8568993  40.1029963  79.3258254   6.6168784   3.9598820
  80.0061433   6.1500856   4.4451694  79.2103384   7.4375788   4.4387822
  11.8672619  70.9878067  78.8480944  11.3870943  70.6697671  78.0835542
  11.2637680  71.5968649  79.2736236   2.2902650  71.4737427  13.5747307
   2.8908936  70.9492386  13.0452285   2.6006639  71.3594941  14.4729687
  22.9496257  32.2946934  10.1599370  23.8798856  32.4577673  10.0041957
  22.8615844  32.3013203  11.1130565  84.8720588  51.6352909  40.6224638
  84.8411343  51.8643703  41.5513331  84.2479112  50.9151716  40.5324645
  55.4138836  18.3785065  63.6661502  56.2599641  18.6121662  63.2843352
  54.8003165  18.4204897  62.9326622  86.3514776  29.4725251  47.0636343
  86.2427364  28.8157499  46.3758454  87.0904817  29.1554946  47.5828609
  55.8821574  21.5953438  47.3085664  55.2613007  22.2898222  47.0884104
  56.1821754  21.8131906  48.1910423  34.7552463  69.5873214  66.7135192
  35.6229992  69.9709382  66.8403060  34.6856538  69.4598061  65.7674068
  51.2697893  55.0794006  79.9814501  50.7179534  54.3160799  80.1518924
  51.1957036  55.6103710  80.7744278  80.8645745  36.0177148  55.8391241
  81.3628032  35.3625873  55.3504442  80.6495651  36.6879886  55.1904826
  25.1697944   9.4157673  12.7035149  25.7657974  10.0302007  12.2751649
  25.3712652   9.4971050  13.6357303  38.4626273  34.6913976   9.3459820
  38.3245144  34.5157927  10.2767450  38.9094987  33.9107442   9.0186931
  15.1064786  44.6698334  73.3579896  14.9718623  44.1896170  74.1749978
  14.2284918  44.7653923  72.9888832  50.6839759  56.5400531  86.7529073
  50.5514429  55.7092340  87.2094228  50.3011236  56.4011004  85.8866809
  26.9005517  31.5889824  12.0649329  27.6671161  31.7156709  11.5058614
  27.2461684  31.6241553  12.9568656  61.5739999  60.0695191   6.6026354
  60.8658809  59.4989009   6.9012893  62.1388909  60.1712088   7.3686570
   5.4323778  36.7313673  40.8449735   4.9475834  37.5316937  40.6432713
   5.0633285  36.4306452  41.6753955  58.4070155  55.2559936  62.2291416
  58.7977553  55.9204166  61.6616064  58.7029998  55.4886085  63.1092072
  46.7378861  33.6341113  25.9101345  46.8222333  33.0495104  26.6633670
  46.5024013  34.4808673  26.2893218  32.7585256   5.2566878  70.1990262
  33.6974933   5.3903112  70.0697350  32.3681572   5.4621190  69.3495309
  33.3772378  49.7168697  29.3518859  33.5265773  49.2182470  28.5485771
  33.5871029  49.1040951  30.0566524  58.7534357  36.3842356  23.9290336
  58.8649780  36.7360694  23.0458557  59.5292052  36.6809715  24.4048080
  64.0302480  45.4889164  65.6505986  63.3508355  44.8594742  65.8923279
  64.4989642  45.0700051  64.9287604  15.3676280  53.5246213  16.3139311
  15.5204687  53.9918523  15.4926110  14.4151216  53.5099374  16.4074611
  38.5135618  29.2757663  69.2248386  38.4741671  30.0740388  69.7515650
  39.4256606  29.2218364  68.9395329  55.7514847  36.9580026  87.0719804
  55.7184930  37.8347619  86.6893101  55.6090320  37.0996319  88.0078651
  66.6638909   7.0676677   1.4910232  67.2923154   7.6968374   1.8452264
  66.4234566   6.5219231   2.2397461  50.7257411  31.7107154  66.1731543
  49.8361601  31.3609053  66.2232582  51.2845881  30.9845893  66.4500347
  36.1051899  25.1551067  70.4109196  35.6402087  25.3581395  69.5992534
  36.3594410  26.0088274  70.7612754  81.9511495   7.4513359  40.0131254
  81.9325912   6.7529766  39.3587695  82.8663866   7.4960097  40.2898511
  31.1389269  30.2837965  71.0918968  31.1300445  29.7495227  71.8860658
  32.0303956  30.1964514  70.7544265  84.9345475  10.8217856  74.1514121
  85.4026841  11.6535752  74.2235651  84.2557344  10.9850055  73.4965809
  40.0155232  48.5788686  57.8218183  39.1389413  48.4541942  57.4580982
  40.0576967  47.9700044  58.5592039  60.9930400   1.9243979  87.8557181
  61.0597512   2.7446669  88.3445332  61.5575744   2.0531991  87.0935219
   8.7608841  70.1490223  88.8868386   8.5105428  70.4197621  88.0035148
   9.6211569  70.5456469  89.0241393  61.3329433  43.2624769  42.9774175
  60.5546334  43.6307475  43.3955590  60.9946363  42.5712840  42.4081789
  51.9882972  32.8922976  87.6614187  51.0815259  33.0786503  87.9048736
  52.1504470  32.0110898  87.9981858  32.9129572  57.2657962  19.0889338
  32.6121407  56.4315974  18.7285817  32.7944292  57.8919072  18.3746734
  -0.0273790   0.2170535  15.1160036   0.3076580   0.7447437  15.8409348
   0.6993441   0.1750830  14.4944380  49.0029211  11.8959276  37.9033639
  49.0988960  11.0708956  37.4276090  49.1612779  11.6644809  38.8185619
  36.7748255  41.9493743  45.1098163  37.5117387  41.4029204  45.3829075
  36.6896653  42.6016016  45.8052148  66.1033086  67.2061873  88.8780081
  65.3380405  67.6154132  89.2819026  66.0060957  66.2736965  89.0709910
  19.7463527  36.3661299  51.5953371  18.9578042  36.4397963  52.1329210
  19.4745935  36.6685994  50.7287975  70.4962686  54.9561963  68.4892820
  69.8137209  54.6328494  67.9012283  70.0629174  55.0342970  69.3391872
  37.3373085  52.5907419  72.1723770  37.2463314  53.1255844  72.9609825
  36.5637880  52.0269228  72.1748132  86.6838612  71.1520377  42.7293720
  86.4055449  70.6568483  41.9589439  85.9097008  71.6541731  42.9838668
  25.1914799  69.9980671  54.3602326  25.3585540  69.5971600  53.5072428
  25.2740540  70.9386636  54.2030968   7.6599503  33.4768172  61.1815850
   7.2479218  33.4363600  62.0446189   8.4796002  32.9932927  61.2845896
   3.6680241  69.9805245  11.8195457   3.1656762  70.1824339  11.0301718
   4.5173822  70.3980009  11.6762420  10.8281469  38.4716808  84.1684900
  10.2188607  37.8173303  83.8266895  10.8817561  38.2827680  85.1053304
  12.4729728  19.1202807  18.8342118  12.2393889  18.7739860  17.9729625
  11.7309623  18.8911138  19.3937962   4.3855546  67.9515295   5.2703624
   4.8832545  67.7661276   4.4740253   4.0689742  67.0957668   5.5596352
  36.7327826  44.6139810  72.4138620  37.4907272  45.0803933  72.0614257
  36.9535893  44.4573828  73.3319869   2.7109042   2.4583397  66.2186506
   2.7746438   2.3008979  67.1606597   2.1495106   3.2298484  66.1422077
  35.4260719  37.2387544  72.5966514  35.3252597  37.4794471  73.5175942
  34.8310324  37.8250779  72.1293350  58.1441619  17.7372772  24.4182506
  58.8745620  17.2368255  24.0545258  57.3936653  17.1466153  24.3541789
  17.0546270  61.9685002   8.8285607  17.4066064  62.3404220   8.0198478
  17.0370959  62.7029352   9.4421808  37.4980488  47.3523289  21.8908499
  38.2940651  46.8788535  22.1325334  37.1516212  46.8706892  21.1396889
  64.4728051  19.5078617  40.7177632  64.1997942  18.7727748  41.2667114
  64.0608054  20.2727740  41.1195060  53.9709035  60.9700075  86.6289463
  53.5862440  61.6463355  86.0714076  53.3007267  60.7943447  87.2894291
  18.4679827  65.9960832  23.6386401  19.1254110  65.3462347  23.8870687
  17.9472692  66.1251404  24.4313781  67.6302261  59.4965628  20.8882683
  68.5131087  59.7403687  20.6102238  67.1811288  60.3316881  21.0190705
  19.2533568   9.2583089  64.4487500  18.4641395   9.7734750  64.2815023
  19.3209012   9.2265690  65.4030363  28.7111685  45.3103904  41.5511039
  28.7694433  45.0185965  42.4608798  29.3678493  46.0030910  41.4792150
  42.1910218  48.2576148  36.0096485  41.3649889  47.7772506  36.0657895
  41.9525948  49.1663153  36.1930816  19.5467420  14.6031234  22.7613224
  20.3965374  14.9196419  23.0677465  19.7525844  13.8192980  22.2519322
   5.4917549  21.7846181  52.1826158   5.9348592  21.1089246  52.6957714
   5.3385227  22.4958324  52.8046495  79.4157462   9.7645723  71.1305388
  78.6604270  10.1317662  71.5897701  80.1672373  10.0125216  71.6690683
  72.3785219  58.1029918  74.9485104  72.9145895  58.8371596  74.6487421
  72.2202472  58.2845457  75.8749115  63.0691529   0.9650497  50.3179288
  62.6332505   0.1280338  50.1578495  62.6361498   1.5780720  49.7238380
  74.2691995  10.0605937   7.8069759  73.6584766  10.0377275   8.5436757
  75.1352976  10.0759587   8.2142471  27.0800413  59.5631013   0.4173483
  26.3126299  59.4347570   0.9748780  27.6545862  60.1333002   0.9282331
  73.6992715  34.9931000   4.7125204  73.0481115  35.6938188   4.7473843
  73.9994416  34.9900836   3.8036086  47.6047917   2.8124464  80.0627178
  48.0255231   1.9774524  80.2676614  48.3102120   3.3565123  79.7125660
  22.1188716  35.3775723  19.3393912  22.2918626  36.3029591  19.5124960
  22.9480689  35.0377503  19.0029619  85.1766561  24.3206078   2.0812147
  84.5148885  24.9965681   2.2274102  86.0117954  24.7797503   2.1704467
  46.9336182  25.1028568  16.6778940  47.0992781  25.4536358  17.5529613
  46.5258884  24.2511189  16.8345169  42.7814809  31.4673529  73.0386789
  42.5084162  32.1366455  72.4112118  43.5718039  31.0874492  72.6548893
   2.7580318  33.6338915  61.9465594   2.5952532  32.9809150  62.6272625
   3.3866400  33.2152506  61.3584919  53.8538950  53.9393906  74.0670848
  54.1796872  54.8388667  74.0992416  54.6428155  53.4010180  74.0039094
  13.0141274  43.8190452   3.6246605  12.9717351  44.2164211   4.4944462
  12.8082841  44.5352096   3.0238536  78.5690618  27.1998941  54.2877783
  78.6954592  27.9969340  54.8025433  78.6630944  26.4883295  54.9210756
   4.4059555  10.6450341  82.5070734   5.1802823  10.1044150  82.3509297
   3.6823932  10.0199529  82.5513780  45.2250446  11.1851691  25.4311415
  45.8722743  11.1669743  24.7261632  45.6617544  10.7584120  26.1682947
  34.4147552  65.0928080   0.9346196  34.1150933  65.6282526   1.6692852
  33.7751990  65.2574112   0.2417231  85.8189241   6.7499665   7.7489796
  85.8615309   5.8101695   7.9256091  86.7183979   6.9935902   7.5302875
   0.0328415  16.3670752  31.7284278   0.4661748  15.6395864  32.1747619
   0.2551677  16.2481192  30.8050361  83.8672986   9.2001562  49.8688241
  83.4385900   9.0167368  49.0328827  84.0843011  10.1315147  49.8274343
  27.3311793  25.2422841  11.2931378  27.5105454  25.3645976  12.2253926
  27.7428892  24.4054101  11.0778035   3.9001897  38.1647431  60.7554305
   3.3694403  37.9209069  59.9970897   4.4384376  38.8935780  60.4466900
  65.4846975  48.2592514  79.6354291  65.7370362  48.8563881  80.3396910
  65.3475115  47.4184880  80.0719250   4.2282837  29.1550181  75.0155758
   4.1347979  28.3478497  74.5096397   4.7077259  29.7468836  74.4358671
  68.6931457  54.2688746  39.7937034  68.6706606  53.6685395  40.5389040
  69.1696154  53.7905990  39.1151307   8.7011160  38.3620675  14.2672807
   9.4054741  38.8878937  13.8883107   8.1466826  38.1314995  13.5218453
  58.2346310   3.4531177  85.6948383  57.3932720   3.7946723  85.3920390
  58.5704973   2.9509932  84.9523447  13.9403668  15.9584854  63.1981034
  14.2360090  15.2078259  63.7132129  13.6489027  15.5799336  62.3686584
  61.2169601  43.7168222  66.6410374  60.3538329  44.0009187  66.9419236
  61.8096210  43.9555867  67.3537621   5.8109498  44.7537497  70.7642513
   5.5511639  45.6637555  70.9078913   5.1704273  44.4179390  70.1371995
  65.8912914  41.6543049  49.1934851  65.0437146  41.5457425  49.6248314
  65.6728528  41.8597638  48.2844730   0.7947297   6.1392413  58.0945753
   1.1615033   5.7816859  57.2859572   0.2767043   5.4221673  58.4602068
  76.7128027   8.0862332  27.5939901  76.4141207   8.9766496  27.4091132
  76.6622809   8.0096383  28.5467822  62.8307782   6.6710801   4.7313970
  62.3809660   7.4487238   4.4009866  62.1960842   5.9628830   4.6225286
  79.1672687   5.8346314  82.5930041  79.8693035   5.2287603  82.3557294
  79.2405551   6.5467791  81.9576250  30.9770765  23.0100554  70.3521994
  31.8071267  23.2753262  70.7482800  30.8942104  23.5640383  69.5760113
  71.9994836  57.3994247  70.6320580  71.4087258  58.1199886  70.8512034
  71.8996944  56.7796726  71.3546791  20.7809554   5.7911423  19.0580191
  19.9693890   5.8041461  19.5653875  21.4186427   6.2379833  19.6147237
  58.7217837  38.4401130  42.4466626  58.2620675  38.8681519  41.7243914
  59.0754619  39.1617584  42.9666352  71.6208628  65.0781790  38.9401498
  71.7151527  65.3729663  39.8459322  70.6869889  64.8908248  38.8452305
  56.6276112  28.6499946  56.8708485  57.5214789  28.9487633  57.0380894
  56.3202597  29.2038862  56.1532337  12.6940622  24.0722679  82.6213583
  12.2345936  23.2394063  82.7284187  13.0249063  24.0495948  81.7234385
  57.5411447  70.1173649  21.2306479  57.0034703  70.0595809  22.0204574
  57.5600704  69.2238392  20.8878864  55.9158749  27.9964514  45.1821304
  55.9932000  28.5974361  45.9231230  56.1877858  28.5142589  44.4243893
   9.5533417  36.1786683   8.0125266  10.4129037  35.9953076   8.3916888
   8.9306153  35.8415013   8.6565468  19.5821454  30.8087549  78.5871885
  19.4824810  29.8637500  78.4720164  19.0748358  31.1920623  77.8716858
  12.1391009  39.8553213  75.1860394  12.0120053  38.9162939  75.0507394
  13.0889309  39.9641276  75.2331147  63.1892565  21.4159294  73.1517297
  63.5238326  20.6523852  73.6221453  62.8383863  21.0595968  72.3355502
  46.8438442  59.1850457  43.6545812  46.9442058  60.0339120  43.2237850
  46.7997141  59.3937438  44.5877101  74.3430905  53.7699942   1.1401944
  74.0714109  54.6877778   1.1304348  74.7144876  53.6208895   0.2706751
  71.6742381  17.0704422  63.2215128  70.7596888  17.1167910  63.5002297
  71.6824473  16.4012255  62.5371785  43.8631569  24.9417277  85.3954108
  43.1300209  24.3314645  85.3158980  43.4666320  25.7520891  85.7152770
  21.3458722  39.1483572  39.0066809  22.2086180  39.5094582  39.2104150
  21.1532636  38.5612044  39.7376976  23.5571883  65.6911954  43.4568751
  23.0088474  65.7867984  44.2356011  24.2560360  66.3344287  43.5755961
  38.7832569  66.4941908  87.8304623  38.7275944  65.8322046  88.5195979
  38.4666471  67.2974069  88.2437830  31.7763897  22.5249309  11.9245317
  32.1851696  23.0111358  11.2084760  32.2518648  22.8053332  12.7065354
   6.4272596  58.0674325  82.9478564   5.6634407  57.7855677  82.4445030
   6.9792578  57.2873415  83.0025182  70.3073848  53.7398896   4.1245222
  69.9428917  53.3498557   4.9190346  70.9390214  53.0937953   3.8085647
  13.7314539  71.1268698  13.5473166  14.2926425  71.8618850  13.3002297
  14.1698274  70.7339903  14.3021054  55.1847258   0.4748599  76.8723313
  54.2519470   0.6001567  77.0468486  55.3078776   0.8027082  75.9814997
  32.1233074  41.8421952  80.1410598  31.7144780  42.2902606  80.8815513
  32.7467333  41.2365999  80.5420914  13.7162323  55.7329074   9.9225321
  13.9986983  56.3127372   9.2152540  13.2540779  55.0216268   9.4789951
  79.9801495  56.2019321   3.8472100  80.0499119  56.0221406   2.9096386
  80.7397372  55.7647528   4.2320899  35.6984459  15.1145565  20.5614202
  36.2138904  14.3625391  20.8529998  36.2538869  15.5492084  19.9142766
  51.7195304   4.5671739  62.2079621  52.3464652   3.8549755  62.0816369
  51.2636496   4.3438383  63.0194581  45.9311982  51.8539394  34.4768420
  45.8496143  51.6700347  33.5410242  45.6077509  52.7495795  34.5740151
   6.5671048   8.8458389  76.5873882   7.2941842   8.8657885  75.9651427
   5.9932021   9.5591900  76.3081076  78.5969822  54.8569868  69.5232746
  78.9138066  53.9557327  69.4633137  77.8247070  54.8024334  70.0861660
  78.8486116  52.2977990  21.3289485  79.2531831  53.0964103  21.6677311
  78.0233182  52.5922455  20.9436904  52.4036860  71.1347856  11.7160570
  52.6915421  70.9320320  12.6061478  51.9051161  70.3642313  11.4442005
  72.3669986   4.3428167  14.5523906  72.9327625   4.3338345  15.3244413
  72.0951935   5.2564690  14.4652505  13.9854707  54.3475765  62.5466565
  14.3906812  53.9795591  63.3318949  14.7125383  54.7402681  62.0635437
  42.2081176  38.2170675  21.1954071  42.3545506  38.0951336  20.2573659
  41.2935081  38.4916088  21.2613484  70.7585609  21.4489247   0.0656900
  70.4609811  22.3308947   0.2888648  71.7076090  21.4785559   0.1867747
  38.0260615  62.0567570  34.7210026  38.9619185  61.8617903  34.6721007
  37.9451401  62.6586479  35.4608748  11.8800698  40.2901959   7.0658284
  11.6653685  41.1632100   6.7372228  11.1850839  39.7278950   6.7237113
   0.3914770  32.6045053  65.0194970   0.5144676  31.9692469  64.3141234
  -0.3649768  33.1231232  64.7455537   5.6201455  14.2438550  29.4678599
   6.5592150  14.1259198  29.3247813   5.5540503  14.5748353  30.3635804
   1.4027533   1.9264894  59.8201847   1.8231069   1.8725176  60.6784515
   2.1124727   2.1547190  59.2198169  55.4770644  59.0346663  76.0715246
  56.4207814  58.9269905  75.9530505  55.3742820  59.2407560  77.0006073
  79.5333452   6.6438936  87.8562699  79.1976942   7.5197528  88.0471648
  79.4750625   6.1780022  88.6904042  53.9753950  67.1928569  76.1230704
  54.0884716  66.9245042  77.0348995  53.5058865  68.0253889  76.1748805
  18.6139899  69.9944680  28.9099375  19.2680521  70.6890219  28.8322883
  17.8631627  70.3156129  28.4105816  44.3309504  61.1780120  46.9677879
  43.9724493  61.7003027  46.2502078  45.1347436  60.8002737  46.6107695
  46.1664386  23.6965058   3.2333553  46.7467449  24.4277730   3.4448375
  46.3918096  23.4647020   2.3324076  38.5103020  42.3670630  62.9616817
  38.8573247  42.4713515  63.8476450  37.5656931  42.2723480  63.0840545
  66.5490120  55.2812902  41.3317730  67.1377150  54.7756952  40.7713854
  66.1663973  55.9362894  40.7479803  58.7799602  55.5361171  48.2859219
  59.2706162  56.3021502  47.9881270  57.8864702  55.6897464  47.9788300
  85.2378390  33.5973810  85.1607310  86.0048659  33.9648335  84.7215497
  85.0239799  32.8140659  84.6538646  20.9208152  63.0579924   3.0237427
  20.5985320  62.4251182   2.3819985  21.1677984  63.8223436   2.5031677
  48.4974482  51.5301468  15.0712025  48.9884393  50.8671703  15.5566113
  48.3033805  52.2069853  15.7196308  39.1550183  28.4590485  18.8410538
  39.4068563  29.0604822  18.1402778  39.1824602  28.9921428  19.6355909
  81.9856978  27.1502002  13.0515018  81.4859856  26.8198868  13.7981026
  82.7987245  27.4797540  13.4344036  11.5787468  26.8395245  10.6718225
  11.5199969  27.7637784  10.4298823  10.8171525  26.4344609  10.2569377
   3.6225808   3.2334644  83.9902568   2.7848495   3.3424633  83.5401930
   3.9883912   4.1169865  84.0327235  34.8793817  49.6813360  50.2012882
  34.6666761  48.9388480  49.6358683  34.1271150  50.2675972  50.1198973
  50.2018612  19.8332014  37.3948003  50.1367984  19.8812346  36.4410228
  49.7677596  19.0112929  37.6233920  23.6787994  23.9182745  77.8428370
  23.8415275  24.3123197  76.9858190  23.0865221  23.1883205  77.6622640
  84.1617182  70.9656572  37.9036140  83.4153513  70.7420933  37.3475676
  84.9126313  70.5584461  37.4717106  10.6457567  20.1188840   7.1729596
  10.0191120  19.5585124   7.6307062  10.8064303  19.6702257   6.3428262
  85.8996218  50.6647406   7.2507950  85.5823494  49.9502511   6.6984592
  86.1985381  50.2338519   8.0515545  54.2784610  23.8508483  77.4679143
  54.4116435  24.7329813  77.8148087  54.3658697  23.2781227  78.2298703
  45.1221085  28.0828137  17.5613395  45.1486231  27.6936555  18.4354589
  45.8817047  28.6646685  17.5350645  17.1799481  21.4681831  56.1029493
  17.2645668  21.2627805  57.0340139  17.6252215  22.3094561  56.0018398
  13.8405252  31.6382879  14.6620535  14.7028031  31.2247956  14.7036813
  13.9992711  32.5488339  14.9109261  51.6871370  29.2145996   4.9142476
  52.5092566  28.7361432   4.8073333  51.3113291  29.2446291   4.0344189
  34.9281108  22.8665198  74.4256066  35.7303371  22.6445089  74.8982333
  34.4239987  22.0529054  74.4140120  83.4658587  53.3124535  60.8912542
  83.7570755  52.5218415  60.4369885  84.1569772  53.4904922  61.5291329
  58.7870807  41.2604926  65.5911256  58.4649193  40.4101599  65.2921638
  59.7403222  41.1756228  65.5721618  18.6393961   5.1163450  74.3357077
  18.0181867   5.2487309  73.6196039  19.2865929   4.5064089  73.9816654
  74.7623796  39.7618897  59.6398711  74.4523304  38.8901243  59.8850779
  75.7089685  39.7269659  59.7776449  71.3709975  59.6701834  82.5851440
  72.0872606  59.7481301  81.9549668  71.7909904  59.7733430  83.4390737
  28.8387410  47.2424948  60.7470698  28.5933594  47.1019941  59.8325868
  29.1696257  48.1403661  60.7710354  55.3902225  23.1103482  86.5073693
  55.1422208  23.9030015  86.9832135  55.7673241  23.4309406  85.6880728
  63.4436997   1.0457801  16.4199542  63.0240831   1.2059513  15.5746738
  62.8766682   1.4826496  17.0554479  21.6938471  18.3329436  58.0304127
  20.8993080  18.0136431  57.6026432  21.5853953  19.2835734  58.0582157
  68.6204828  19.5802992  80.9427874  68.8742265  19.0924188  80.1593217
  68.0620199  20.2854220  80.6154452  19.6459390  62.8543008  20.9113982
  20.6022021  62.8692312  20.9510180  19.3783832  62.4479569  21.7357345
  66.6624005  66.3147815  68.2345011  67.6122165  66.2732907  68.1233260
  66.4014446  65.4097527  68.4049614  46.8185193  62.0541268  24.3727002
  47.1843166  62.5176750  25.1260575  47.4839786  62.1432047  23.6904532
  26.4108859  35.0749052  72.1758855  25.5690496  34.8229843  71.7963076
  26.1855148  35.4668450  73.0195815  78.1164483  59.9410984  51.9263158
  79.0120465  59.6044803  51.8976108  78.0844532  60.5964725  51.2293990
  22.2062610  50.9987106  14.5726091  21.5889970  50.6452879  13.9320551
  22.4663153  50.2417354  15.0975777   9.1133177   6.3696914   4.2014870
   8.7127728   6.1909723   5.0522838   8.3792132   6.3735954   3.5872337
  39.5882574   1.2527230  10.4514418  40.3490247   1.8329646  10.4794532
  38.9231251   1.7046125  10.9706978  44.6529454  46.9324551  69.0877412
  44.7191314  46.0662130  68.6859006  43.9227838  46.8563813  69.7019958
  29.2878942  64.8540657  16.9335883  29.5617080  63.9440077  17.0478352
  30.0478219  65.2856004  16.5430508  10.4581128  29.7238961   9.8914194
  10.2467913  30.0597990  10.7624787   9.6311373  29.7662474   9.4112635
  64.6129661  42.0907127  22.9020533  63.8931985  41.9335324  22.2909389
  64.2243057  41.9639716  23.7675656  84.4673393  19.9558523  37.1033535
  84.4353737  20.7066989  37.6961768  85.1719878  19.4077833  37.4487847
   1.2291786  21.8087456  74.8173112   1.1514889  20.8813224  74.5935203
   1.1593338  21.8315034  75.7716882  10.6291453  55.7423404  28.9503359
  10.3751922  56.2666265  28.1908204  11.5621205  55.9230316  29.0649649
  22.4951183  45.1894809  34.1483290  21.6365657  45.4122949  33.7885052
  22.3043616  44.8127778  35.0073624  72.8515998  67.8572317  22.4092678
  72.7084975  67.0881767  22.9609090  71.9791795  68.0895557  22.0912423
  67.2393626  16.4059199  20.0003567  66.5521646  15.8038753  19.7148167
  67.6296784  16.7267831  19.1873794  75.2214080  19.2935796  75.9947263
  75.5425708  19.9532264  75.3799479  74.5139824  19.7315292  76.4679926
  53.1291156  62.5870401  27.2154124  53.4243665  62.8082009  28.0986715
  52.1773667  62.6830202  27.2499629  25.0337787  62.9706156  44.5463699
  25.2080942  63.8789548  44.2998624  24.8910615  62.5197582  43.7141492
  76.3201786   0.4683797  82.0339814  76.7918190  -0.3317232  81.8024163
  76.9232840   1.1761500  81.8069199  72.9594263  55.8650795   1.8750418
  72.5031386  56.0071019   2.7044168  73.4322685  56.6825342   1.7187730
  36.1229765  36.0522730  85.9960885  35.6867546  36.7772743  86.4436546
  36.7859672  35.7513592  86.6174790  40.4292483  61.7794409  52.0053050
  39.8867643  61.9227488  51.2298014  40.9877843  61.0375751  51.7731314
   1.4520850   0.7553501  19.7473066   2.3213384   0.8418692  20.1386438
   0.8693998   1.2106673  20.3550863  30.4757100  66.6680792  52.3538958
  29.9261949  66.5892529  53.1336723  30.4412419  67.5979908  52.1296009
  16.7696750  34.0307784   5.9828759  17.3910049  33.5238275   6.5055438
  15.9639259  34.0282034   6.4995901  84.0444781  69.7699799  55.3222159
  84.6399501  70.2346602  54.7342388  84.0442485  68.8687632  54.9996631
  61.9027708  38.9504040  15.7688934  62.3487887  38.4209386  15.1078592
  62.6038560  39.4467789  16.1911769   3.5677765   7.7948154  30.5544125
   4.5218155   7.8023862  30.6317701   3.3752155   8.4661898  29.8998834
   8.5480729  69.3786730  39.1507740   7.7601540  69.9220986  39.1609868
   9.2583382  69.9825354  39.3678114  39.3109568   7.9152473  11.6914347
  39.5744694   7.1750186  12.2381104  39.8715044   7.8533210  10.9180116
  53.9874118  12.9181390  39.1751195  53.9721762  13.7180267  38.6495917
  53.7424475  13.2048725  40.0548969  55.0589018  53.3309721  42.4345544
  55.2917007  53.3448010  41.5061982  54.3368342  53.9548299  42.5097317
   3.6429709  67.2411945  46.9350980   4.3492842  67.7655280  47.3124940
   3.8203486  66.3495012  47.2345176  85.3131051  18.0291883  53.7910149
  84.6353568  18.7010389  53.8652162  85.6571880  18.1330350  52.9038539
  63.6975791  61.3326462  75.6702299  63.7583162  61.9884394  76.3648363
  62.9502277  61.6122545  75.1415363   8.7997609  54.1456263  38.9135371
   9.5550790  54.1042302  39.5000632   9.1720972  54.0528180  38.0366197
  12.4512612  40.0242444  40.2226486  13.4059254  40.0588824  40.1622482
  12.1885511  39.4261201  39.5230325  56.2861981   8.9364198  70.0354311
  56.2311218   7.9814731  70.0711429  57.1628813   9.1381645  70.3624745
  64.8071134  64.7920242   0.3019247  64.0463430  64.9603439   0.8579181
  64.4755911  64.2211795  -0.3912284  44.0335944  53.4076357  58.1560565
  44.2443182  54.3296726  58.3032817  43.0768591  53.3778370  58.1548461
  69.1550617   1.3750168  30.4337659  69.2787094   2.0139264  31.1357185
  69.5213050   1.7983688  29.6573183  63.9590940  43.3110659  56.3451211
  63.3412226  43.6588963  55.7020964  63.5401235  42.5157595  56.6740334
  65.5999670  25.2081174  16.4071118  64.8944038  25.2093198  15.7602649
  66.3263162  25.6527020  15.9700841  56.6163936  33.7741548  29.6769383
  56.0435063  33.4343856  28.9894874  56.6328206  33.0826015  30.3385394
  85.8368183  13.1861121  53.2174776  85.4763989  14.0039112  53.5603104
  85.1779794  12.5256044  53.4317034  57.6819207  69.4621002   7.0210020
  56.8325068  69.0356454   6.9075817  58.0373826  69.0784688   7.8226912
  85.7081909  22.3557997   8.8598350  86.0609295  21.5855039   9.3053142
  86.4473984  22.7033319   8.3608105  20.4442976  52.8434087  85.9100303
  20.7295741  52.0907345  85.3920238  19.7339419  53.2307602  85.3985761
  27.6080982  34.6085354  78.0923004  27.8200379  35.0038780  77.2467133
  28.4363254  34.6109849  78.5721603  86.0053704  10.7142014  34.3310628
  86.3314729   9.8171212  34.2593965  85.6382719  10.9052712  33.4679505
  56.6121651   1.9942638  31.9470915  56.7388819   1.3425139  31.2576012
  55.8011899   1.7292592  32.3810543   6.5289087  69.5564610  69.6950133
   7.4310579  69.8694656  69.6287805   6.1174176  70.1441117  70.3287117
  62.0417238  68.6762584   3.9187459  62.1930917  68.4791993   2.9943611
  62.8037495  69.1925094   4.1814882   9.2816428   6.0116822  49.9841840
  10.0550260   5.4476879  49.9796474   8.5420694   5.4040146  49.9859580
  29.2000956   8.8996680  13.0703080  29.2717397   8.5346452  13.9522702
  29.8480862   9.6038651  13.0491762  52.3860195  51.3672838  73.1931202
  52.9802575  52.0158796  73.5705279  51.7028261  51.2551312  73.8541046
  56.0519435  32.3416411  59.7088342  56.3860497  31.5722221  60.1699191
  55.5469452  32.8160724  60.3692308   1.0373600  23.8852155  61.3943148
   0.8929060  23.3586255  60.6081419   0.4433325  23.5116306  62.0453121
  38.5619922  67.2946606  47.6639975  38.0188451  68.0169142  47.3484459
  39.3092254  67.7220483  48.0825832  46.7132494  38.2932513  83.0965144
  46.2261961  38.3397648  82.2738070  47.3263752  37.5689462  82.9712520
  15.9870006  28.7171535  24.6821454  16.4129321  29.4170244  25.1771151
  16.5910851  27.9773323  24.7452201  34.3788534   9.8901467   2.2852719
  35.2371299   9.9110112   1.8620014  33.8354060  10.4717325   1.7536190
  11.9331015   2.6118529  66.1656305  12.4274134   1.9368898  65.7005364
  11.0158466   2.3811020  66.0185614  30.2883018  34.1865157   3.4205487
  29.4430542  33.7642248   3.2673865  30.0785775  35.1159492   3.5122051
  86.3516603  24.3156681  70.4150245  86.2190722  24.6725664  71.2932476
  85.8520272  24.8973900  69.8421386   0.2364369  25.0917846  37.1467285
   0.3115967  24.5387437  36.3690856   0.9646982  24.8199319  37.7052654
  12.2765327  35.6173101  32.2497283  12.8888651  35.1458832  32.8145623
  12.6521876  35.5407100  31.3726606  61.4193778  69.0009447  78.1439489
  61.6810393  69.6632841  78.7835360  60.5133090  68.7927287  78.3718027
  59.6158502  55.5015350  25.5249278  59.6279459  56.4578105  25.4846443
  60.4495163  55.2349235  25.1374346  23.3634100  55.9215747  69.6603900
  24.1914691  55.4724730  69.4905145  22.7552184  55.5530216  69.0196846
  -0.1043581  39.8461755  10.1818393  -0.2904287  40.7612992  10.3919777
   0.6023217  39.6020882  10.7795491  52.3160175  32.8726247  61.0102081
  51.5614461  33.4438540  61.1535642  52.0727306  32.3399199  60.2530629
  54.6640874  70.8886253   9.2843576  53.9152718  70.2924055   9.2789679
  54.9181219  70.9457705  10.2054617  68.9674663  43.4502252  37.9966139
  69.1815223  44.3819563  38.0444573  69.3041802  43.1705203  37.1453673
   6.8683105  68.8162081  30.0348580   7.6409430  68.8100201  30.5998647
   7.1539355  69.2727310  29.2435066  58.5744393  13.4694790  80.7827930
  59.4726054  13.7863148  80.8784203  58.1162193  13.8134122  81.5495891
   8.4129750   9.6427030  16.3157163   8.8777656   9.0390055  15.7362761
   7.7734470  10.0740436  15.7489879  85.0500412  55.1973997   5.7098917
  84.5098555  54.4620185   5.9991072  85.2824392  55.6559907   6.5173057
  79.9654779  55.6949110   1.1175003  80.7438253  56.0601321   0.6967622
  79.2609251  56.2991308   0.8835012   2.2367888  15.5254158  26.6630893
   1.9847178  16.4474447  26.6125465   1.4758516  15.0897852  27.0470585
  82.3841728  62.1409874   6.7202833  82.6838666  61.2487638   6.5460634
  81.9493427  62.0857253   7.5712244  37.5858456  57.4910122  51.0585738
  37.9582870  57.1333913  50.2525797  37.7078734  56.7976164  51.7070669
  67.4729622  52.4944416   8.0160359  66.9206713  52.1510615   7.3136850
  67.9826263  51.7396854   8.3106837   0.5760504  54.2884923  72.4634666
   1.1651326  54.0019641  73.1614033   1.0677925  54.1346417  71.6567749
   6.6545088   2.9783276   4.6585729   6.1028414   3.4508768   4.0352013
   6.9810663   2.2251120   4.1663754  23.1237422  32.5516316  12.9624425
  24.0266821  32.6674795  13.2582645  22.5906203  32.8851901  13.6840737
  14.9518762  21.0466328  15.7245260  15.8230723  20.7083311  15.9314107
  14.7985213  21.7290286  16.3780167  70.8897248   3.9781899  61.6201321
  71.7950182   4.0805331  61.9137331  70.4668664   4.8041172  61.8552209
  70.0580891   8.7738102  61.3986551  69.7754420   8.6363345  60.4945296
  69.8867718   9.7007764  61.5648352  80.8946749   4.1789381  10.0036253
  80.2926892   3.9391333  10.7081384  80.8996733   3.4176882   9.4233621
  73.3757449  42.1389739  19.3562619  72.8504818  42.2261279  18.5608157
  73.5654753  41.2027087  19.4166092  70.2407424  12.7189183  81.5833883
  70.0256835  12.9133533  82.4956254  71.1976006  12.7181052  81.5578229
  52.0248393  34.4248095  10.8374117  52.7541851  33.8056858  10.8685965
  52.1822974  35.0176128  11.5722742  82.1985597  62.8276612  81.9707381
  82.7351176  62.3878649  81.3112560  82.8165525  63.0674774  82.6612487
  59.6778083  13.9536245  39.8691212  59.1110023  13.4131869  40.4194756
  59.7245897  13.4819241  39.0375311  75.3644286  57.6903340  40.8713477
  75.9222695  58.4415539  40.6695706  74.7085583  57.6849282  40.1741843
  60.4418552  35.2812385  52.0917457  60.6607876  35.5078728  51.1878998
  59.7847315  35.9281757  52.3484411  19.4594188  51.3675644   1.9258193
  19.5785714  51.1091995   2.8397570  19.7850378  52.2668289   1.8867350
  63.6809093  54.8304877  28.9742783  63.9171271  53.9092645  28.8657387
  64.3081870  55.3045211  28.4283417  64.3795985  69.1725826  18.4311455
  64.6219398  69.3477301  19.3404451  63.4226272  69.1527707  18.4378793
  50.2135968  59.1541297  86.6288320  50.4885588  58.2383774  86.6738364
  49.2610149  59.1228127  86.7173695  52.7145897  17.5220471  23.6088044
  52.6849321  18.0944905  24.3753948  51.7970945  17.4023065  23.3636583
  46.2678958  41.0125075  62.7528179  46.5562644  41.8666007  63.0746879
  47.0714059  40.4959566  62.6913487  81.7901371  18.0165575  17.4623343
  80.9287636  17.7041239  17.7391967  81.6030359  18.7701093  16.9025266
  50.3802614  43.2926280  88.4557495  50.5356000  42.5400458  89.0264699
  49.4690223  43.5345669  88.6210999   1.0159794  57.2789201  24.0903551
   1.6790910  56.8930084  24.6627073   0.2561204  57.4088719  24.6577690
   1.7172623  11.8789331  84.8334762   1.7541550  12.1535543  83.9172590
   1.6939296  12.6980010  85.3282641  68.3269798  20.2080448  38.3833023
  68.6850778  19.8816708  39.2088189  67.8608151  19.4591472  38.0117183
  25.4077683   6.8007311  79.2974946  24.5096473   7.1249885  79.2306543
  25.3120170   5.8718121  79.5076682  62.9079094   2.1723774  26.7957289
  62.3978490   2.2393375  27.6029380  62.8402103   3.0399254  26.3969694
  69.8620235   9.2401393  30.8166451  69.2114717   8.6712048  30.4051507
  70.1556077   8.7513282  31.5854779   7.6091865  29.4469723  36.7368352
   8.1725872  29.2290537  37.4793464   8.2106750  29.5346371  35.9974041
  15.6951824  29.5240979  80.2693120  15.2732324  28.7065895  80.0049826
  16.4340761  29.2478567  80.8114917  44.5337386  31.9711476  19.3404996
  43.6664329  32.2133744  19.0159400  44.3694895  31.5955559  20.2054764
  83.1643739  12.4330761  78.7620054  83.8528322  12.5353290  78.1048894
  83.3116412  13.1516344  79.3769999  84.1656109  17.2557546  17.3787614
  84.4592804  17.5452477  18.2425808  83.2359280  17.4822157  17.3535246
  81.2291627  71.7174079  14.1962279  80.8292924  71.0901972  14.7986749
  82.0774351  71.9206966  14.5903592  60.6649103  38.4691375  57.7015896
  60.2077003  39.0258474  57.0713000  60.2369279  38.6526572  58.5378810
  22.7036857  55.3259823  79.8409243  23.4138282  55.3318180  79.1991336
  22.0006635  55.8248007  79.4247850  85.3316632  62.8649919  14.9199326
  85.5540661  62.4415339  15.7490599  86.1771722  63.0874609  14.5302482
  52.8864001  33.8109012  19.7970437  52.7566358  32.9134651  19.4904471
  53.5198364  33.7311235  20.5102238  30.3783290  40.0194007  40.8977092
  29.4361385  39.9960079  41.0649268  30.5317378  39.2960546  40.2898704
  82.2109774  56.9992057  70.1242301  82.0077241  56.2039113  69.6318615
  82.2115635  56.7204151  71.0399305  14.8941451   2.3697348  21.7122801
  15.7035792   2.3037445  21.2056308  15.1269490   2.0389234  22.5798041
  26.7184743   2.1843017  21.1745342  27.6630513   2.0664433  21.0739590
  26.4249580   1.3925108  21.6252527  67.7331647  50.9054783  86.4731002
  68.0090983  50.8474216  87.3878253  68.1989141  51.6682725  86.1303840
  62.4459993  67.7382301  69.8065656  61.9320762  67.4367468  70.5557136
  62.1257882  67.2163164  69.0708328  23.8861698   4.9138992  70.4457955
  24.5553168   4.6233263  69.8260847  23.2576755   5.3979523  69.9101471
  34.4445442  13.0818089   3.1370278  35.2879110  13.3370458   2.7631048
  33.9997293  12.6160027   2.4289345   5.9710249  36.8271930  73.2963093
   5.2031648  36.3411760  72.9956263   6.1543554  37.4463855  72.5897525
  33.4702137  61.3986062  41.6010554  33.6561446  62.3365943  41.5581636
  34.0714698  61.0060625  40.9681001  42.7423596  14.6664720  85.9206880
  42.9607279  14.8719433  86.8297142  42.6998994  15.5182929  85.4861422
  44.4022773  67.8151848  64.6982159  43.7155818  67.1508700  64.6401903
  45.0036195  67.4805780  65.3635412  79.5636879   2.6521998  33.3145748
  80.0589983   1.9014574  33.6421191  78.7792563   2.2688565  32.9222140
  79.2813972   6.5886645  34.1854429  80.1424106   6.4908950  34.5920494
  79.2212270   7.5200434  33.9729700  64.3232794  54.8302631  35.8271494
  64.3688639  55.5682619  36.4350242  65.1205054  54.9026426  35.3023411
  60.8501750  29.7814309  76.5367587  60.3084438  30.5278369  76.2805612
  60.8278690  29.1977907  75.7784062  22.0383387  35.5628672  72.1635310
  22.8616365  35.6170192  71.6782681  21.5421449  36.3306755  71.8798163
  55.7277254  70.3313430  34.6512247  55.0061434  69.9611265  34.1428046
  56.4272055  70.4654926  34.0117223   1.5941520  46.3157309  47.0063995
   0.6463258  46.1821013  47.0057574   1.8767073  46.0230633  47.8728520
  82.2948386  59.3531325   6.0028572  82.9315523  58.9403273   5.4194025
  82.6782429  59.2663298   6.8756104  28.9678268  63.0684920  63.2638624
  28.7546008  63.7395956  62.6154902  28.8187274  63.4948486  64.1077943
  54.9401484   6.0556676  26.4369606  55.8763841   6.1643264  26.6039570
  54.5138852   6.5954752  27.1026478  33.7956493  20.3578065  74.7923742
  33.1197462  20.2496452  74.1232793  33.5500338  19.7418853  75.4826974
   3.3996542  70.6755393  60.9722433   3.3485861  71.5794117  61.2831107
   4.2184367  70.6381958  60.4778422  55.2362444   0.7211296  85.6466980
  54.5842847   0.8698580  84.9618182  54.9696672   1.2999808  86.3609107
  83.5241058  71.5102773  35.1118838  84.1150632  70.7977153  34.8684570
  84.1045527  72.2161244  35.3966522   9.9137348   1.9220133  10.4154634
  10.5065751   1.9910083   9.6671240  10.0394559   1.0300307  10.7391812
  54.5778358  59.9245834  26.4975269  55.4230059  60.0155836  26.0574835
  54.1890157  60.7980890  26.4523737  45.3632914  36.3609185  33.4517858
  46.0009475  36.1929129  32.7579554  45.4015128  35.5814746  34.0060764
  56.3016718  23.5868427  80.0000956  55.5047101  23.1232655  80.2573503
  56.8134229  22.9354528  79.5204772  36.6910655  68.4487202  54.7548888
  37.6246715  68.2789857  54.6291831  36.3029222  68.3035010  53.8920516
  16.6099458  49.9016515  81.0238542  16.2495710  50.5618187  80.4317890
  17.4311068  50.2821573  81.3355299   8.0279060  40.8145111  12.0809033
   8.2850528  41.2573757  11.2722140   7.2262145  40.3442865  11.8519679
  45.7919791  66.3218223  57.1876729  45.9491604  67.2515802  57.3522214
  45.5259791  65.9698704  58.0371467  43.1406272  10.8458033   1.4536493
  42.9502573  10.0936373   0.8930804  43.6093339  10.4748087   2.2012514
   2.6503575  34.9109399  42.3784754   2.8300978  35.6611599  42.9451282
   3.3282715  34.2734916  42.6028056  25.4207669  64.7283800  86.5685154
  25.3322295  65.6145146  86.2175761  26.0717377  64.3112164  86.0042076
  38.2351956  28.2137383  12.5458828  38.2576740  28.5886948  13.4262999
  37.8314054  28.8934730  12.0063034  16.3454412   6.6901101  23.5886578
  15.6952101   6.3423522  22.9783334  16.6090971   5.9345716  24.1138996
  10.2688172  34.7953122  42.6348614  10.1289368  34.0501658  43.2191748
   9.4018542  35.1890778  42.5371078   8.6022480  40.8322349  15.7631678
   8.6282360  39.9110701  15.5043013   7.8593660  41.1956082  15.2811740
  22.9320760  46.2859750  88.3656895  23.2881097  45.8066086  87.6175720
  22.3442423  45.6623221  88.7919999  30.5594603  48.8490220  63.0829661
  29.7217465  49.3090936  63.1358955  31.2122787  49.5464004  63.0219467
  40.3410567   8.3045932  22.8036838  39.5570666   8.6538824  22.3799051
  40.7720688   7.7888178  22.1221883  52.5998283  60.2899146  75.5816896
  53.0054196  59.9282800  76.3696920  53.1546607  59.9833294  74.8644739
  67.9618639   0.9149591   5.9042476  68.6963442   1.4805764   6.1426749
  67.5940143   0.6341058   6.7421258  79.8485069  19.8497346  72.7734512
  79.3406007  19.0511892  72.6299642  80.1410057  20.1078547  71.8993515
  21.5623520  11.7353814  86.8851904  21.3935202  10.9948702  87.4677457
  22.5028392  11.8940986  86.9659645   2.8278991  64.9883685   5.9187534
   2.4332845  65.2754018   5.0952712   2.3218216  64.2158458   6.1704000
  15.4587977  35.9438304  23.6594919  15.0075980  36.4441725  22.9795592
  15.0513959  35.0781596  23.6300017  79.1349578  38.5788570  69.2976486
  78.5151152  39.3076511  69.3274177  79.3798677  38.4352392  70.2117738
  16.4061127  27.9249131  57.1856623  16.4658174  28.8799714  57.1626239
  15.6728050  27.7167413  56.6067356  34.4903306   3.7241583  85.0063786
  34.7379102   3.0088392  84.4204992  33.7254297   3.3939215  85.4776557
  67.1490257  65.6986885  64.5099288  67.1319765  65.6837796  65.4668608
  68.0278087  65.3958746  64.2812890  70.2528210  63.1291901  78.3011294
  70.6235723  63.6995175  78.9745550  71.0142964  62.7406718  77.8705013
  30.8775558  15.6098092  82.2903423  31.1477681  15.9313602  81.4302132
  31.1243104  16.3089518  82.8957709  16.0017383  27.8153210  17.6548652
  16.5744255  27.0894740  17.9026701  16.4084600  28.5867736  18.0494159
  52.4657856  19.2585017   4.9938167  52.7259429  19.8355917   4.2758215
  51.7874064  18.6981495   4.6169363  26.1208388  63.6567504  14.3736164
  25.7803545  64.4999216  14.0746773  26.0282308  63.6850767  15.3259048
  70.0061406  55.1926109  55.8267624  70.1720506  55.1100271  56.7658500
  70.6011099  55.8847685  55.5383857  12.5378071  40.1033133  31.5712233
  13.4253621  40.4177604  31.7432725  11.9699532  40.8137129  31.8697300
  32.3847510  56.9055017   7.9163585  31.8783569  56.0950160   7.8624167
  31.9660199  57.4032573   8.6185945   7.9462514  60.1587011  60.3083009
   7.6010100  60.5964875  61.0863647   8.2132494  60.8732554  59.7300655
  16.4747099   6.2646397  58.7248305  17.3038707   5.8055409  58.8588180
  15.8271933   5.5663473  58.6281766  60.5731096  15.5300104  45.6300403
  60.3005239  15.5557127  44.7128335  60.0350760  16.1956924  46.0585483
  69.8030980  40.6115910   9.9455075  69.9930516  39.7308898   9.6222199
  68.9797656  40.5184070  10.4247490  52.2767012  56.7725430  24.2903396
  52.9111200  57.0125146  23.6149447  52.6655562  57.0866433  25.1066512
  14.0216342  70.1696061  26.8156151  13.4804261  70.7299432  27.3718056
  13.5609527  70.1480700  25.9768418  68.1964355   6.2738260  21.3270287
  68.6135832   6.4381486  20.4813233  67.7016085   5.4648556  21.1968564
   8.9268189  32.3307547  19.3705380   9.3285880  32.4156909  20.2351763
   9.6657825  32.3295967  18.7621275  39.2850303  62.2438580  78.9023900
  38.5333295  62.7941207  78.6824156  38.9088990  61.5040380  79.3792793
  70.0768679  13.6977762  33.5998856  70.1307450  12.7516676  33.4649497
  69.6420895  14.0274999  32.8134494  39.6552400  11.8742219  76.5236392
  39.4567769  12.0097127  75.5970938  39.1981052  12.5851233  76.9729486
  20.0911701  52.0291995  67.9364203  20.2040173  52.9345477  67.6468654
  20.0121883  51.5265173  67.1256772  64.8920770  66.7884112  20.9455876
  65.2143208  66.4645000  21.7867013  64.0296232  67.1531990  21.1439182
  64.0156739  36.0053197  69.7843095  63.9835518  36.8663362  70.2012633
  64.9119719  35.9311802  69.4566129   3.1935526   1.7240675  62.0441619
   3.7277431   2.5125386  62.1400035   3.0174845   1.4434279  62.9422005
  46.3645096  57.8841072  49.9556000  45.7625006  57.1660664  49.7600638
  47.2201553  57.4632552  50.0391809  60.3704945  37.7099057  87.3921421
  59.7208058  38.1770327  86.8668529  59.8819964  36.9913958  87.7938199
  77.6935397  60.0372744  84.9914847  77.5609228  60.4864586  84.1566924
  77.1074123  59.2815151  84.9525718  81.3410538  70.1849658   2.3674746
  80.7377896  70.6777364   1.8111642  81.5371237  70.7783147   3.0925439
  61.2988968   3.3012092  13.0812255  62.2369029   3.3157689  13.2713947
  61.1231629   2.3997721  12.8114838  48.6482805  35.3493775  65.6878947
  48.3372960  35.5367881  64.8022324  48.1561364  34.5731586  65.9553084
   7.4232871  57.4166865  64.2439511   6.4888258  57.6207147  64.2811864
   7.8161043  57.9687464  64.9200845  84.2619062  63.7442391  83.8986336
  84.6282078  63.4046925  84.7151893  83.6398061  64.4165561  84.1765064
   0.4750005  26.8191905  39.1828797   0.2497935  26.6367174  38.2706203
   1.1803292  27.4642152  39.1310479  56.1337524  66.5823874  29.3479026
  56.6472567  67.3884367  29.4010974  56.2850020  66.1462677  30.1864460
  61.2336591  18.2317269  43.6865035  60.6794477  18.9933723  43.5162749
  60.6172500  17.5103127  43.8123331  37.9202869  40.1502448  -0.3131599
  37.1658566  39.6796356   0.0412320  38.5033655  40.2674652   0.4368472
   4.1509961  52.8113436   8.4840337   3.5656121  52.6752323   7.7390295
   4.7002081  52.0276201   8.5034087  59.9403011  70.8778773   2.5027692
  60.3052924  71.3896571   3.2246380  59.6177234  70.0770219   2.9160562
  81.9576932  56.3116834   9.6320176  82.2839254  55.7050157  10.2966669
  81.5562905  55.7486144   8.9701558   3.4177650  47.7857091  39.1061919
   3.3088975  48.7198497  39.2844080   3.0635618  47.6671429  38.2248781
  36.7244777  61.0159530  32.6041171  37.1442227  61.0257775  31.7439140
  37.3773699  61.3935126  33.1935340   7.2877294  41.2653179  67.0444262
   7.6982288  40.4006693  67.0341798   6.3727296  41.0987458  66.8180173
  42.0180977  68.5488919   3.7588451  42.5027256  69.3322844   3.4987225
  41.3255640  68.4669454   3.1031670  63.5013791  54.8046496  11.4325300
  62.9206572  55.4974187  11.7472757  63.7799213  55.1008997  10.5659955
  11.1191253  34.5141430  48.3512688  11.0953439  34.1465799  49.2347639
  10.6506380  33.8756983  47.8135515  35.6589938  30.6540593  79.5666057
  36.5546791  30.7186896  79.8979703  35.3131170  31.5438751  79.6360974
  16.7474034  36.4256880  37.0645733  17.3861337  35.8336608  36.6673843
  16.8571996  36.2991251  38.0069949  31.6794223  49.4439202  75.5038587
  31.0354779  48.8122566  75.8241219  31.3000125  50.2981873  75.7100329
  57.8769858   4.2379971  22.8599697  58.5227961   3.7625239  22.3373931
  57.3682894   3.5527766  23.2934817  44.5532516  53.9571364  74.7576899
  45.4890758  54.0733011  74.9219171  44.1312249  54.6323207  75.2889634
  73.4828907  13.1042278   0.3809906  74.0707854  12.3715654   0.1970954
  73.6684061  13.7395635  -0.3105038  42.5348573  41.5382382  88.8313551
  42.1918906  42.4291887  88.9007296  42.3882310  41.2956641  87.9170847
  10.9643935   6.2895783  75.0917081  10.3680607   6.1587855  74.3544752
  11.5294331   5.5169976  75.0826974  66.9847991  29.1522318  20.7498430
  67.3928380  28.2863587  20.7499138  66.0551591  28.9789291  20.8980569
   7.3053813  45.6845255  46.1547892   6.5694291  46.2685241  46.3379609
   7.0167425  44.8287487  46.4719098  44.9810004  41.9490991  83.2746601
  44.4842275  41.1451538  83.1226053  44.9624625  42.0660738  84.2245048
   9.0557592  59.9770155  74.1174079   8.1383564  60.1632655  74.3171953
   9.1141914  59.0216687  74.1288130  17.6893087  20.5185704  80.8956549
  17.7327697  19.5631364  80.8570685  17.4601827  20.7113850  81.8048060
  55.4194036  51.8098345  17.0645990  56.2345113  51.7032173  16.5742277
  55.6059264  52.5101451  17.6899040   5.5639369  28.9782275  28.0017477
   6.1693578  28.8215719  28.7264245   5.4466115  28.1185201  27.5975573
  19.9398538  55.9398222  68.9676410  20.3705180  56.1594870  69.7937812
  19.0512347  55.6890608  69.2200428  81.6481488  57.3411006  72.9773373
  80.7227484  57.4637906  72.7656462  82.0199468  58.2225826  72.9459131
   7.2217981  50.6057385  25.9986380   8.0606123  50.1563319  26.1018671
   6.7735155  50.4709469  26.8335667  10.4503520  15.2543272  17.7429901
   9.7468687  15.6593759  17.2357637  11.0310519  15.9807169  17.9696564
  23.0660780  18.3915535  60.4479628  22.7439570  18.2571583  59.5566673
  22.4164079  17.9623593  61.0046970  27.4394177  41.4371073  65.5060018
  27.7382579  40.5950795  65.8493900  27.7239605  41.4376547  64.5920724
  54.5751964  30.2463215   9.8474920  54.5661471  31.1446256   9.5170384
  55.2143800  30.2596081  10.5598820  51.3336684  59.4896071  79.1490215
  51.7316995  59.0885906  78.3763710  50.4043688  59.2706015  79.0806793
  47.9858602  34.2075210  29.9713332  48.3704557  33.9095741  30.7956789
  48.7382676  34.4133561  29.4165838  73.3721497   9.1128364  23.4448332
  72.7883889   8.3673123  23.3046583  73.3712274   9.5783337  22.6084462
  55.9060775   1.9314203  52.8872969  55.4221584   2.7396825  53.0569035
  56.5118569   2.1585013  52.1818202  21.5091637  10.6558350  11.9925275
  22.3949367  10.9665077  12.1799320  21.0488388  10.7258528  12.8288470
  26.0415921  48.8552029   5.3133724  26.9650177  49.0821258   5.2037230
  25.5799610  49.4271275   4.7001589  31.0600709  64.4696224  41.9982939
  31.7908968  64.5166120  41.3819195  30.8755488  65.3820786  42.2210206
  55.9660019  16.1044780  52.7397567  56.6799231  16.6871133  52.9987635
  56.0851854  15.9837294  51.7977127  19.7537066  37.4426025   9.4877466
  18.8824709  37.3004435   9.1176507  19.5982345  37.9722318  10.2697652
  53.0154951  65.9529865  32.4794568  53.4112912  65.5829275  33.2685282
  52.0911967  65.7114784  32.5392750  43.7711650  27.6727413  75.9695942
  42.9696392  28.1344430  75.7233832  44.4308623  28.3621008  76.0458489
  57.8768686  27.5935503  18.8360716  57.0759566  27.4196528  18.3415704
  57.6060271  27.5513805  19.7531858  75.5079582  21.8049122   9.3611099
  75.1434249  22.5177929   9.8856557  75.0788095  21.0175253   9.6959010
  73.1076958   1.5449383  58.3873113  72.3976648   1.2002843  58.9288845
  73.5935093   0.7691963  58.1072373   2.6435924  21.9683248  11.5007063
   3.2980040  21.8635632  10.8100528   2.9068892  22.7650532  11.9612825
  84.6573388  13.4186617  25.3482955  84.9197023  13.9680834  26.0868975
  83.7949334  13.0834963  25.5935565  34.7967022   6.7361152  82.5831714
  35.0806488   6.7802463  81.6701223  34.2713153   5.9374982  82.6322761
  61.6744239   5.2077292  87.2556054  60.9305974   5.3625039  86.6733694
  61.2991447   4.7478613  88.0065507  41.3424324  65.2047680  57.1813909
  41.8173248  65.0431726  56.3661634  40.4259589  65.0368838  56.9620210
  69.9004203  54.3990999  32.0747786  69.4747252  55.1890392  32.4079624
  69.2491901  54.0017900  31.4966127  56.5741713  55.3315426  82.8652986
  55.6754227  55.1802590  83.1578665  57.0507223  55.5595445  83.6635129
  29.8403103  -0.0800263  33.8809971  30.4985256   0.4981157  33.4953337
  29.0262606   0.1521654  33.4341840  67.8884170  49.9905128  32.2866574
  68.0506158  49.8920505  33.2248623  68.7247010  49.7730056  31.8748911
  16.4285199  44.8652635  50.3037747  15.9362415  45.4882279  49.7691634
  15.7573422  44.3679732  50.7711660  27.7798280  19.0741101   1.2958138
  27.0653389  18.5908465   0.8808519  27.4062788  19.3964970   2.1160330
  78.1664189  40.6007181  40.8891134  78.4545950  39.7636144  40.5251852
  77.4961756  40.3649955  41.5305498  45.2748797  42.9268675   1.8296313
  45.3750800  42.1665079   1.2568792  46.1048517  43.3971463   1.7507893
  50.4911942  55.2124390  33.2801282  51.2043114  55.8495603  33.3222260
  50.8514795  54.4826285  32.7763396  15.5174278  44.2637549  55.7688072
  15.9639385  43.8641928  55.0223422  15.0713257  43.5345180  56.1994326
  66.3471598  25.9499540  31.0126527  66.7006163  26.7967344  31.2851657
  65.6694474  25.7539030  31.6595698  51.9439974   8.3760951  54.5937665
  52.6173534   7.7289285  54.3840072  51.9202617   8.9530798  53.8303812
  54.7435562  23.7229224  51.5605907  53.8347890  23.7813900  51.8554731
  55.2477164  23.5896501  52.3632692  47.5532863  60.1013236  49.2063397
  47.1389185  59.2932620  49.5089414  47.1492734  60.7899467  49.7343583
  13.7380486  46.2114001  49.5883753  13.2350321  46.9567576  49.9164738
  14.5387542  46.5994942  49.2355504  78.1675545  25.4715495  43.7532719
  77.8235608  26.2875710  44.1166024  79.0994035  25.4862038  43.9716168
   8.1309683  36.5153166  16.4617732   9.0163724  36.2715548  16.7317207
   8.2609943  37.1892001  15.7945356  60.2340261  71.3317543  76.3759923
  59.5427016  70.7115410  76.6075905  60.3294412  71.2410106  75.4278924
  36.3588442  52.0126850  78.8288853  36.9498609  51.9542224  79.5795605
  36.9330290  52.1983838  78.0858782  28.0073604  13.5801988  79.7631574
  28.3267420  13.4022235  80.6477771  27.5052714  12.7998364  79.5282679
  36.3805850  40.7802119  27.2366119  35.8975785  39.9729814  27.4135736
  36.9297386  40.5700546  26.4813001  52.3218972  43.1078425  71.2513318
  51.5812726  43.6495937  70.9789118  52.0378299  42.7101798  72.0743761
  33.1524407  40.5242750   5.7946847  32.5487320  41.2510961   5.9479772
  33.6573658  40.4573176   6.6051162  11.9006369   8.9371767  31.0619807
  12.3815458   8.2008971  31.4399368  11.3119863   8.5358993  30.4226851
  75.2934966  32.7813349  75.7031068  75.8243470  32.1189404  76.1454452
  75.9285926  33.4198806  75.3788472  30.0574388  60.9889823  34.1430276
  30.7374781  60.9685168  33.4697078  30.2252780  61.7966911  34.6284845
   2.3472030  11.3369432  30.9151711   2.3712490  11.0592134  29.9994638
   1.7288685  10.7364261  31.3314325  86.2593456  68.3802946  32.6124450
  86.0562729  67.6091065  32.0830469  86.9958482  68.1078962  33.1597976
  79.2635359  17.5450834  18.8544321  79.2752660  16.7489923  18.3230817
  79.3914171  17.2362819  19.7513824  40.6427042  30.0038358  10.6806827
  39.9724403  29.3444327  10.5013348  41.3818503  29.5054043  11.0291952
   4.1942563  26.6141894  73.5457863   4.9521442  26.3122480  73.0451175
   4.1968702  26.0720119  74.3346263  52.7595251  34.9329623  78.0574994
  51.9141040  35.2971327  77.7950593  52.5876615  34.0008745  78.1913165
  14.4882147  47.9314617  77.4615122  15.3695823  48.3047317  77.4518889
  14.5854811  47.0995459  77.9248557  57.9721622  21.6285031  45.6975181
  58.7493925  21.3004104  46.1497351  57.2416094  21.3729153  46.2607226
  27.1903219  49.9487690  18.0013930  27.7016337  50.5776587  17.4921879
  27.3032843  50.2280303  18.9099547  42.9428146   5.1958095  71.1856156
  42.0030470   5.3319384  71.0650433  43.2352147   5.9643033  71.6756680
   5.8744617  39.1851896  46.6063148   5.5855169  39.7448092  47.3271259
   6.8298340  39.1933792  46.6648685  24.7414612  39.6578697  20.6947548
  24.8478984  39.8541342  19.7639577  25.0635420  40.4400094  21.1428098
   7.6762220   3.5904435  87.1550343   7.3720648   4.3911908  87.5822626
   6.8747518   3.1528357  86.8680207  74.9504387  43.6642126  40.9121626
  74.3057586  43.2746551  41.5028100  74.7171351  43.3272693  40.0471363
  58.0563228  17.2548838  54.2233254  57.6389967  17.0796176  55.0667426
  58.9333999  16.8809375  54.3077752  52.5181932  49.4423294  51.4399657
  52.8165485  49.9307303  52.2072209  51.6137597  49.2045856  51.6441954
  79.6714003  25.2645174  36.3252580  80.4451367  25.4384981  35.7892593
  79.3405119  24.4260613  36.0031773  70.2805227  62.0742241  58.0213985
  69.4151806  62.4341366  58.2160211  70.1009024  61.2477542  57.5731621
  66.6583682  37.5967747  77.0132938  66.1088430  37.2181500  77.6995134
  66.7421004  38.5191198  77.2551624  28.8538528   4.5276222  43.1365203
  28.8631865   4.9826221  43.9786128  28.3321151   5.0914192  42.5654210
  82.0425753  67.8460478  44.4258353  81.2353533  67.7049611  43.9311445
  81.7720790  68.3665945  45.1822048   3.6912387  61.5487129   8.9684266
   3.9795449  61.5189980   8.0561610   4.3769172  62.0404262   9.4204165
  55.4103684  14.5345651  84.3072170  56.0360593  15.1034206  84.7557102
  54.6415314  15.0873707  84.1674762  61.7942361  33.0103915  39.3746490
  61.8698933  32.2022136  38.8673460  61.5384448  33.6729464  38.7329141
  63.1061393  43.6448471  32.9739001  63.1033678  42.8308033  33.4774444
  63.9736182  43.6738884  32.5703300  31.5808841  67.9253604  41.6077690
  31.3545467  67.3285944  40.8944153  32.5315438  68.0199680  41.5483765
  63.6058492  33.4487005  87.8306591  63.1954990  34.2991014  87.9877031
  64.2032630  33.6025421  87.0987702  25.0959381  63.3190544  22.6479460
  24.6682005  63.8297795  23.3352831  25.8873333  62.9752580  23.0623486
  11.3812725  64.6248982  32.8322772  11.6475423  65.5254160  33.0177490
  10.6863151  64.4453694  33.4655508  60.1390847  12.2658738  62.0786213
  60.1569822  12.7674687  61.2635666  59.3922875  11.6752741  61.9800427
  14.2296517  41.9787392  15.7714390  13.3506623  41.6390752  15.9394801
  14.8161824  41.3186057  16.1408135  66.4840498  15.2910833  70.2344420
  67.3820933  14.9719634  70.1454906  66.3075896  15.2509198  71.1743784
  56.4810087  19.4972838  41.5031650  57.2253833  19.8970430  41.0533529
  55.7131161  19.9157883  41.1140290  34.7368208  62.9832772  51.2583034
  33.8889264  62.9009546  51.6948008  34.7226903  63.8583597  50.8706660
  45.1597745  51.2287222  82.1578834  44.4642329  51.7602708  82.5450653
  44.8835174  51.0965022  81.2510032  73.7021764  41.8437262   9.1149846
  73.3559578  41.0964339   8.6272155  74.0605848  41.4615827   9.9160724
  79.6397128   7.4699383  74.3106288  79.6936997   7.3958160  73.3578312
  79.3941268   6.5930454  74.6055493  76.1309262  45.2892243  59.0687722
  76.6583160  46.0708563  59.2335247  76.6308435  44.7956437  58.4186240
  78.5296858  62.2261863  16.0347795  78.4407205  62.1189621  15.0877737
  79.3413830  62.7214976  16.1445342  79.9173706  64.0680942  79.5120416
  80.1280329  64.8951477  79.9454417  79.5829707  64.3261846  78.6530900
  80.3100531  71.3487242  30.7248234  79.5669532  71.0599176  30.1950829
  80.0732750  72.2317880  31.0083127  73.6363910  29.6543979  79.7231510
  72.8835528  29.0787982  79.5884234  73.9452035  29.4426037  80.6040652
   2.2585899  11.5435692  14.2642087   2.4857121  12.2871577  13.7058867
   1.7303969  10.9754879  13.7033811  42.5138583  69.5162895  40.3311863
  42.5682812  69.8340868  41.2324492  41.6298165  69.7496456  40.0479077
  56.5223397  46.5854877  68.6514757  55.7646380  47.1677205  68.7073766
  56.1623791  45.7525413  68.3467454  16.4643085  31.6989211  72.6106571
  17.3718544  31.6347377  72.3132134  16.0939613  30.8332740  72.4382340
   4.7452330   4.0125343  45.5476598   4.3614800   3.1447520  45.6738320
   4.0869447   4.4951408  45.0476806  76.7539237  52.4713656  40.7310066
  76.9668402  51.6283178  40.3307957  75.8397130  52.6254628  40.4928791
  69.1984045  52.2526805  19.0869950  69.3923965  51.3696233  18.7726560
  68.8824058  52.1245067  19.9813932  24.1007139  23.7180771  24.0695911
  24.6683201  23.8945976  23.3193274  24.1887941  24.4932553  24.6241832
  70.8953940  29.5258667   3.6927314  71.6714970  29.6016873   4.2478415
  70.5072555  30.4007822   3.7028882  50.9758756  11.9147077  56.6099618
  50.5038493  12.2240157  57.3831058  50.9652523  12.6596139  56.0089346
  27.7407020  36.0243054  75.4658884  28.2346931  35.4968209  74.8382223
  26.8792888  35.6085503  75.5025873  19.9162658  59.1224487  15.1773751
  20.3605592  59.0967724  16.0248277  20.5375333  58.7222613  14.5690095
  69.1638009  56.9151622  15.4782284  69.2992975  57.7318615  14.9977342
  69.8079796  56.3106954  15.1096019   6.6774768  71.6776120  62.9505173
   6.1608110  71.8202871  63.7435697   7.1155527  70.8393543  63.0976408
  52.7161754  46.1965021  23.9721854  52.0697124  46.5702305  24.5710547
  52.4161235  46.4586687  23.1018582  45.4204532  29.0297154  14.0571027
  46.3636340  28.9008440  14.1572717  45.0268543  28.3851424  14.6451822
  17.0063426  46.9849273  17.0846553  17.0474452  46.6471672  16.1899707
  17.8311130  47.4566437  17.2007117  37.4115246   1.6754611  51.0671866
  37.4496586   2.2635629  51.8214505  38.0950850   1.9959828  50.4787627
  24.8020058  47.8908049  11.8656087  25.6401350  48.3527675  11.8465874
  25.0340441  46.9812643  12.0530278  30.5261304  71.5737754  49.5879561
  30.2183687  70.7820359  50.0291627  31.1196612  71.9833812  50.2173813
  29.7483846  51.0383944   5.8630823  29.2446858  50.4474754   5.3033197
  29.9238587  50.5279652   6.6535902  33.9739259  58.3868991  76.6305069
  34.4598742  59.1557545  76.9287476  33.8462003  57.8627368  77.4211850
  60.4511530  45.9102735  31.8620380  61.3141123  45.6879597  31.5125962
  59.8449594  45.3497656  31.3776910  81.7663424  31.5986698  28.4170463
  82.4534966  31.2543244  27.8465402  82.2383965  31.9800543  29.1572778
  27.0467471  60.9789954  79.8112213  27.4103748  61.6635491  79.2496228
  26.1579240  61.2760777  80.0060735  82.4856513  40.8472790  78.0137528
  82.0597077  41.5786889  78.4607912  83.4191863  41.0558163  78.0492002
  80.5682438  12.4084322  31.7410259  80.2728837  12.9043942  30.9774711
  81.2906886  12.9253289  32.0975693  38.1725934  12.9160368  83.8731913
  37.2956847  13.2211194  84.1059735  38.1889130  11.9999896  84.1503611
  51.0379211  65.6318816  45.0353207  50.8636485  64.7199824  45.2683458
  51.9926093  65.7011679  45.0365971  40.1454347  52.8710690  18.4196884
  39.3392023  52.7279458  18.9154070  40.6898082  52.1104313  18.6229611
   4.3842982  20.7460297  56.4472114   4.6058838  19.9181272  56.0209380
   3.6506314  21.0892179  55.9371263  11.4645066  67.8023312  46.2661183
  11.4047853  67.9652050  47.2074669  10.8905887  67.0510938  46.1161431
  76.6750895  25.9395764  16.4975806  77.0179596  26.2545664  15.6612474
  77.3966658  25.4396951  16.8792586   9.2332967  29.1350263  77.6865280
   9.4150948  28.3549409  77.1624593   9.0573515  29.8207369  77.0422640
  38.8389710  26.4555762  68.7021167  38.3323736  26.9105554  69.3748610
  38.2411303  25.7904013  68.3609998  43.2522385  63.1523661  61.4264690
  43.4074413  62.7547370  60.5697106  42.4811547  63.7047763  61.2979985
  32.0482661  58.5413931  74.3323002  32.3009159  59.2559594  73.7476680
  32.6062245  58.6530246  75.1020097   4.1635432  45.0187087  45.3946136
   3.3053624  45.1794675  45.7869326   4.4489003  44.1879230  45.7748743
  66.5501445   3.8350499  77.2931873  66.2751379   3.8317597  78.2100256
  66.5754834   2.9102878  77.0474134  31.6660308  71.0773022  63.9716097
  31.5569201  70.1735752  64.2675898  31.6382216  71.0215156  63.0164415
  53.4300048  68.4339194   8.9062233  53.7897409  67.9505697   9.6499939
  52.4852686  68.4417251   9.0599910  84.2589245  62.0905587  34.2169163
  84.6542446  62.9623015  34.2212095  84.4613098  61.7400613  33.3494927
   6.6713985  51.6004486  11.6569206   6.8386262  52.4902547  11.9675840
   6.7652941  51.0529814  12.4364686  83.9940643   7.0266714  59.8014849
  83.1711045   6.5385782  59.8285790  84.3716210   6.8124348  58.9483815
  47.0283366   0.8478688  72.9287443  47.2557293  -0.0636943  73.1119848
  46.6618791   1.1732418  73.7509810  65.8757516  67.3593383  49.7461983
  66.5801690  67.2499802  50.3850009  65.1242735  67.6461768  50.2650781
  76.7728827  17.6655055  11.6632811  76.3019877  17.9813614  12.4344651
  77.6938524  17.8406063  11.8566367  51.6518690  36.1438893  69.9111888
  52.2938909  35.4649587  69.7036002  52.1384431  36.9647395  69.8358068
   8.8007123   3.6687905  84.3803393   8.4077128   2.7960442  84.3901972
   8.7758670   3.9529876  85.2940387  28.9401833  70.9191875  76.8875543
  28.7476270  70.0132289  77.1292008  28.1197515  71.2488138  76.5208529
  44.0183008   0.6690590  10.1511646  43.2982482   1.1162476   9.7064417
  43.6830807   0.4903767  11.0297612  45.2244760  40.6960785  18.5451971
  45.6114847  39.8234555  18.4745896  44.2801959  40.5394801  18.5518172
  56.2348915  66.6150087   4.8457795  55.7536256  67.1255766   5.4968828
  56.3145578  67.2009529   4.0930814  22.2527687  41.2337936  66.3870004
  23.2058031  41.3209365  66.4060662  21.9955038  41.6014836  65.5415120
  40.7205067  22.6661960  77.2252448  40.5981736  21.7275734  77.0829277
  41.1649953  22.7242819  78.0709917  39.1412861  35.9449515  15.4829652
  39.1387900  36.0627487  14.5330445  39.6774033  36.6662790  15.8123536
  12.3080114  57.8426299  73.1872870  13.2272625  57.7990203  73.4505500
  12.2350345  58.6679598  72.7079784  30.3036621  28.5686200   9.1391312
  30.4699864  29.5110473   9.1191622  31.0830870  28.1965407   9.5517881
  71.6714381  50.2244501  -0.0024815  72.0913092  50.9853476  -0.4036985
  72.1859421  50.0554154   0.7867870  64.1962316  44.9308129  53.2097888
  63.7829758  44.8900891  52.3473544  63.5199166  45.2923292  53.7826201
  23.2449985  61.1407860  31.8453889  22.8261323  61.0451669  32.7007484
  24.1087596  60.7433787  31.9559154   9.7461265  32.7773798  21.8788729
   9.2503242  32.0797736  22.3075424  10.0768757  33.3137132  22.5994167
  49.8879675   7.8571525  17.7174713  50.4976190   7.1276045  17.6064911
  50.0445189   8.1665024  18.6096742  74.5924424  68.7865468  81.0527998
  75.4668222  68.4032891  80.9834789  74.5283587  69.0737878  81.9636333
  59.3230254  65.4464977  88.0036112  59.0811431  65.2940521  87.0901096
  59.8397613  66.2519820  87.9833362  46.5301120  48.0883143  43.4604188
  46.5426549  47.1945809  43.1179059  47.1133917  48.0623292  44.2189314
  75.6381213  43.8624029  75.3287239  75.4122491  43.8809226  74.3987397
  76.1285222  43.0479248  75.4399181  11.6331732  52.0998919  26.9253170
  11.4276030  52.1176185  27.8600140  11.0441197  52.7474969  26.5382051
  59.8334637   9.8020928  67.7141316  59.9083159  10.1472587  66.8244747
  58.9184067   9.9507040  67.9524955  58.0824807  24.5056266  24.0931044
  57.4267665  24.1371251  24.6851156  57.9704471  25.4530124  24.1714652
   0.4396562   4.4669594  24.2960309  -0.3641168   4.2388119  23.8289875
   1.1383528   4.0615905  23.7824834  15.3709702  55.4671861  40.2667096
  16.0959474  55.9664950  39.8907700  15.3035080  54.6892017  39.7131566
  72.7430732  22.4502309  43.2253138  72.0449584  22.9417641  43.6580524
  73.0411073  23.0266223  42.5216232  57.8625928  42.6241130  87.0055822
  57.7044123  43.5658729  87.0711487  58.7753563  42.5534413  86.7261180
  36.6386069   5.8858309  11.5586216  36.3476423   5.5554991  12.4085936
  37.3830291   5.3301557  11.3277701  14.4721152   5.2071656   1.6050832
  14.5196619   6.1461847   1.7845664  13.8785608   4.8652739   2.2736900
  46.2191947  14.3331557  72.8307265  46.3807949  15.1602330  73.2846654
  46.3289700  13.6638198  73.5061306  46.4352671  38.5976320  35.1968633
  47.3298807  38.9069130  35.0545833  46.2333786  38.0813536  34.4165240
  26.6898993  20.2652441   3.6101614  26.5170144  21.1106741   3.1959262
  26.3706291  20.3680421   4.5066718   5.7391803   1.1319411  23.1117826
   5.4571469   0.2201974  23.1853521   5.5645248   1.5070684  23.9749203
  25.1980201  69.7774606  33.7802171  24.5555332  69.2475852  34.2521011
  25.7799081  70.1122267  34.4625440  73.9605291  36.6898406  21.3993559
  73.7577772  35.9808722  20.7890385  74.4958532  37.2984454  20.8901801
  45.0642102  67.2369771  45.9636938  45.1191811  68.0161223  46.5169955
  44.1740099  67.2550463  45.6123411  67.5089035  18.6908511  21.5213289
  67.2996813  18.0380210  20.8532938  67.9413180  19.3961385  21.0398529
  54.8899232  42.3285401  13.0996667  54.2001652  41.7993160  12.6991825
  55.6730431  42.1293626  12.5865553  66.7134003  12.1503043   4.8119856
  66.4996760  12.3201269   3.8945358  67.3964711  12.7875498   5.0207060
  10.5238381  43.2319903  59.0151411   9.9672497  43.2484813  58.2365723
  10.6015197  42.3034857  59.2344049  28.3894459  51.6066268  68.6854714
  28.4305897  51.5690298  67.7298954  27.5365952  51.2306513  68.9034621
  51.7954242  52.3255675  25.7442238  52.1089851  52.6806197  24.9124489
  51.8417073  53.0633976  26.3522505   8.6622251  43.5039170   6.1346098
   7.7242483  43.3721879   6.2727360   8.7235901  44.3572720   5.7053646
  60.7671713  64.8243053  22.2886640  60.8569465  63.8944068  22.4971370
  61.1213344  64.9065306  21.4032040  30.6796394   3.6178705   6.2106832
  31.5134221   3.1663337   6.3416518  30.8005407   4.1140313   5.4010912
  48.9057600  17.4333326  38.0489751  48.7741716  16.5213670  37.7896780
  48.0534537  17.8467687  37.9115839  47.8686833  49.8832406  63.5995399
  47.1664551  50.5253066  63.7037445  47.4901086  49.2023955  63.0433358
   3.8557871  15.2084364  76.0640892   4.5636160  15.7735881  75.7545516
   3.3980439  15.7349983  76.7194026  54.6927798  34.4707308   5.9515901
  54.3832278  33.6604686   6.3564167  55.4568295  34.7212485   6.4709174
  34.5518713   4.8984504  25.6754689  35.1044111   5.3653424  25.0486169
  35.1546222   4.6195609  26.3647756  37.0086850  14.8029021  11.3044508
  36.7664692  13.9877581  11.7438864  36.8555251  14.6289983  10.3757251
  65.4205282  52.8795739  81.4096167  65.3210134  52.9335484  82.3600983
  64.6509917  53.3305396  81.0622332  76.0833399  50.5054967   3.5676221
  75.4490692  51.0263097   4.0602541  75.5717344  50.1095697   2.8621198
  19.6669427   7.2603622  21.7831811  18.9108889   7.8393680  21.8799631
  19.2882729   6.3876541  21.6772494  30.0316422  32.6918071  29.0169933
  30.7662290  32.6817796  29.6306003  29.3302253  33.1391834  29.4903859
  59.9845897   6.6722474   2.6044407  60.0050151   6.8018395   1.6562738
  60.7130479   6.0767904   2.7805417  23.2277721  27.1709514  87.7621456
  23.7587207  26.6357991  88.3520080  23.6162594  28.0441138  87.8159675
  28.4447230  63.5174522  36.7599552  28.5260133  64.3154105  37.2823403
  27.8104107  62.9824261  37.2370579  33.6844251   4.4675838   1.8730029
  33.5486824   5.2835853   1.3913938  33.9352011   4.7478567   2.7532246
  40.8209555  38.8365712  11.6162247  40.8778596  38.3113173  10.8180380
  41.5391113  38.5190154  12.1636206  25.6525396  63.5828659  17.0771570
  26.0111984  64.4636932  17.1855035  25.9052908  63.1213186  17.8767336
  67.7548828  22.6066799  44.6450529  67.4615460  23.2746290  44.0253519
  67.0043732  22.0198434  44.7377360  56.2017083  64.0674916  55.2214902
  55.5452825  63.6874294  55.8053478  56.2592792  63.4505151  54.4919304
  44.1586268  45.5833980  32.3568581  44.3871493  45.0682032  31.5831763
  44.4625887  45.0549799  33.0948373  32.6040025   9.7676574  77.4746843
  32.1007923   9.2566407  78.1086190  33.1209947   9.1173641  76.9992165
  22.3424799   2.4300346   0.6233737  22.6081385   2.9361438   1.3911698
  22.7233711   2.9012677  -0.1176344  36.7223348  27.5538572  76.1376096
  37.1228169  27.8983427  75.3393767  36.1413353  26.8569852  75.8325838
   8.7171114  59.3398438   9.3636390   8.1251150  59.1685754  10.0960592
   9.1174108  60.1840882   9.5715901  43.1102584  52.2977233  20.9512099
  43.6751479  51.5697444  21.2103978  42.5574036  51.9368849  20.2581161
  75.9130834   4.9431022  13.2825895  76.8460334   4.7296314  13.2989034
  75.6897805   4.9700463  12.3521908  31.0045817  11.7808393  35.0588428
  31.5361567  11.2182364  34.4956929  30.1823075  11.3029695  35.1671819
  32.5892060  54.9087474  63.2653998  32.1272495  55.6926076  62.9680931
  32.2069872  54.1965410  62.7526595  49.2989418  28.2348787  52.8405341
  48.4686225  27.7814122  52.6950356  49.1123365  28.8563498  53.5442271
  63.3122956  42.7726426  20.0999733  63.1156758  42.8743226  19.1687195
  63.0571515  41.8724061  20.3017345  10.9451107  44.7381089  65.1759956
  10.9979530  44.3972880  64.2830899  10.3980749  44.1056398  65.6417924
   2.2192574  42.6959997  71.0220690   2.3971628  42.2537183  70.1920277
   2.3105937  43.6274862  70.8215137   1.2783873  39.4510393   1.9970434
   1.0274316  38.9411148   2.7672577   0.4676927  39.5437776   1.4966379
  64.4777979  15.8881510  23.2721404  65.4077908  15.7075342  23.1353098
  64.2582768  16.5350852  22.6016791  30.0803880  46.9086624  45.2049713
  30.3996680  47.3378133  45.9987734  29.7958153  47.6282717  44.6415774
  -0.0933859  17.9052326  64.5054365   0.6704456  17.3341390  64.4239170
   0.2686995  18.7913027  64.5030324  44.1582140   3.8339121  12.1891432
  44.4466580   3.9919347  13.0880652  44.8586260   3.3090467  11.8016238
  39.6072137  50.6797656  32.0438254  40.3518194  50.7740442  32.6378841
  39.4460575  49.7368525  32.0095420   0.3591493  50.1587635  65.6879349
   0.8389297  50.9864709  65.6572249  -0.0019877  50.1239783  66.5737125
  74.5490959  55.4067921  74.2337664  74.8437333  55.0876360  75.0867377
  73.6180058  55.5921787  74.3559752  84.6993882  57.8170445  81.7129865
  85.4629358  57.2566039  81.5746636  84.0997508  57.5841086  81.0041792
  21.3514174  13.8920240   1.7954848  21.8884392  14.6798373   1.8802772
  20.6865523  14.1240107   1.1471266  55.1681224  53.5097396  70.8786248
  55.1581488  52.5606405  70.7547572  54.2446488  53.7520301  70.9473547
  12.1415543  65.2289875  36.2673594  12.8128090  65.4406624  36.9160834
  11.7012042  66.0618093  36.0978558  17.2235821  53.0038243  19.3682631
  17.2064447  52.4473738  18.5896099  17.8635121  52.5878222  19.9458995
  32.0233866  26.6131129  79.5050684  31.7193868  25.8573003  79.0025117
  32.9747916  26.6034031  79.4003488  32.3715121  19.8171470  79.2803832
  31.5638822  20.3263658  79.2121045  33.0710254  20.4641720  79.1894336
  19.1706922  39.3348319  29.9067438  19.7035039  39.7524382  29.2300250
  18.7929090  40.0642132  30.3981851  19.3024384  38.8067774  23.9901826
  19.8133550  38.3556827  23.3180891  18.6310343  38.1741260  24.2455263
  10.3340110  69.1137962  55.1894258  10.7115533  68.8966328  54.3370563
   9.6162895  68.4900866  55.2993984  75.1448308  70.0318127  10.2336622
  75.9369264  69.9315072  10.7616351  74.8273536  70.9103180  10.4426324
  10.2238772  47.5312115  65.3012701  10.5688919  46.6388557  65.2713051
   9.7382607  47.5727083  66.1250944  84.4130257  31.1196232  48.4479266
  84.9700866  30.5568092  48.9856584  84.5032499  30.7694876  47.5616442
  62.4833173  37.5111201  43.3266057  61.9243940  38.1500282  43.7689100
  62.8161484  37.9752297  42.5584537  43.0698657  23.4366160  21.9298317
  42.9760697  23.0784526  21.0471352  43.3367086  24.3455380  21.7923997
  31.5673240  31.7441971  67.6288437  31.2766170  31.6555829  66.7211715
  30.7772491  31.9890675  68.1105616  40.8773905  40.3398472  33.5788135
  40.5731378  39.7805296  32.8640926  41.7566218  40.6100160  33.3138737
  77.0290679   0.6434359  85.2241379  77.5792628   1.3305045  85.6002418
  76.4471724   1.1058870  84.6210057  24.0167872  56.0566147  51.3532107
  24.3784955  56.3618646  52.1852092  24.1226016  56.7995976  50.7590630
  58.1712857  23.6981854  18.7524690  58.7032570  23.6112487  17.9614694
  57.2750848  23.7912185  18.4293582   2.9867810  70.0660987  33.8333671
   2.8752571  71.0143754  33.7657984   3.5339174  69.8351895  33.0826644
  61.0972468  69.7293052  43.8706211  61.0039677  69.2721589  44.7064130
  61.9917396  70.0698566  43.8824167  82.1303876  22.2519876  51.9163573
  81.2333476  22.5697695  51.8135678  82.6741145  23.0336174  51.8181346
  10.3917274  17.9152818   5.2163680  10.7448791  17.2194316   5.7707218
  10.9925299  17.9569539   4.4723710  28.5157788  69.8933787  71.0140668
  28.5933457  70.8465507  70.9731001  28.8888988  69.5869681  70.1875525
  61.3811894  49.6528663  21.0783681  60.9095979  49.0988554  20.4563510
  60.7688542  49.7729814  21.8042124  43.7580093  42.6371668  20.1357873
  44.3286381  41.9906535  19.7202935  44.2873191  43.0037674  20.8440719
   9.3924202  52.9885090  58.6359152   9.2158667  52.5120834  59.4471361
   8.9807102  52.4592187  57.9528498  75.6786256  50.0941402  71.7221538
  75.3178317  49.5726797  71.0051192  75.1574827  49.8448891  72.4853811
   2.6916736  40.7280862  85.1753056   2.0940705  41.0756988  84.5132877
   3.4380770  41.3272088  85.1624210  50.3038314  62.2959256  52.8834986
  49.4166020  61.9519225  52.9870251  50.7054700  61.7284819  52.2255276
  70.3130139  37.5296725  66.8643602  69.5192580  37.9571828  67.1859475
  69.9940770  36.8306901  66.2934532   4.1659610  46.9023185  30.5301894
   3.8849829  47.8173009  30.5396907   4.8278505  46.8478544  31.2195136
  63.8767912  61.1027643  68.8612922  64.7124352  60.6363944  68.8820307
  63.3147722  60.5626180  68.3057667  14.8569955   8.7638477   9.6618067
  14.4459264   8.9041576  10.5147823  14.1236487   8.6258882   9.0623057
  69.6099520  23.4833015  80.5943244  68.7988736  23.9548023  80.4044019
  69.4215311  22.9960100  81.3963695  65.5276425  50.6948822  34.0423646
  65.3551686  50.2557133  33.2095290  66.1889661  50.1494738  34.4682902
  50.4934683   1.9190232  82.5718053  50.7547502   1.2736838  83.2286925
  49.9795054   1.4199811  81.9369582  23.9286369  70.9254812  44.9534352
  23.6532291  71.5845597  45.5906149  24.7959633  70.6516519  45.2517542
  25.6657345   1.2578261   2.1905805  26.3447699   0.7381913   2.6208390
  25.6820176   2.0987162   2.6476041   1.1973635   1.9285407  72.8830966
   0.5199565   1.7602984  72.2280805   1.0699031   1.2446534  73.5405796
   6.8080860  70.0720711   6.2974993   6.1839434  70.5793702   5.7785335
   6.4143024  69.2020384   6.3623802  75.2511164  68.5899273  39.1925382
  74.4469926  69.1086677  39.2154540  75.4171959  68.3649777  40.1079873
  37.6869231  68.8334778  67.8780962  37.3505467  69.6477977  68.2522164
  38.5185650  69.0811171  67.4740189  30.6298026  44.8678251  88.4104646
  30.6038695  44.8960191  87.4540314  30.5384495  43.9395253  88.6252807
  23.8987503   0.8665864  14.8655266  24.1903859   1.7063806  14.5106656
  23.4537562   1.0931906  15.6821432  79.3425942  22.7946934  21.3577655
  79.4839677  22.2364384  20.5931762  80.2181342  22.9314574  21.7196455
  32.9733402  51.1714726  46.1843718  33.6920785  50.6158422  46.4859046
  33.0241191  51.9504137  46.7383611  69.2788586  44.7541484  41.6614815
  69.9398286  45.4202063  41.8504720  69.7831785  43.9832758  41.4013881
  69.8196402  68.2293613  83.6645927  70.7747945  68.2150126  83.7254715
  69.5564367  68.9750123  84.2040001  58.6595318  21.5042106   6.9161959
  59.3740202  21.1888921   7.4696509  58.6330465  22.4479688   7.0738370
  84.7875539  49.8113539  83.4228587  84.9199033  50.7096105  83.7259274
  84.2211021  49.4160186  84.0854855   0.4249292   6.5779232  88.5781747
   0.8273475   5.7701249  88.8971624  -0.4305380   6.6048088  89.0067593
  80.3528185  17.4613660  41.7273128  80.0886343  18.3804803  41.6864767
  79.5333295  16.9729151  41.6493046  62.0422327  32.9701146  77.9947848
  61.3052485  32.3823812  77.8284853  62.8170503  32.4461537  77.7914269
  17.0939982  47.6362536  24.7179768  16.8895966  48.4444714  24.2476197
  16.2518939  47.1892377  24.8032353  47.9384182  68.8278854  44.3143005
  47.4644236  69.6588104  44.2807667  48.8117250  69.0367651  43.9827339
  35.9672614  70.7425473  17.4184029  35.5148785  69.8995736  17.3871464
  36.8609778  70.5452947  17.1380562  36.5621376  43.7844036  37.9615998
  36.8769266  44.6212549  38.3033886  36.8389284  43.1401930  38.6132220
   0.7016181  36.1785180  27.6460471   0.2664946  37.0194414  27.5055222
   1.1209607  35.9828493  26.8081346  77.2590881  10.7220916  65.4486284
  77.2299378  11.4934877  64.8826513  76.8243081  10.9999803  66.2548393
  44.7669025   2.0447054  35.7689731  43.9454221   1.9222211  36.2447877
  44.6023865   2.7935193  35.1958729  66.7886743  39.7830165  45.2527736
  66.3332541  40.5839099  44.9931697  66.5467264  39.1423922  44.5839735
  44.8909698  36.3527286  37.9466479  44.2088681  36.8597290  38.3870111
  44.8671319  35.4968211  38.3745332  72.9137657   7.1006793  28.2179832
  73.3252380   7.8836787  28.5838169  73.5978013   6.4320264  28.2530603
  34.9082838  46.9308928  45.5880977  34.6313675  47.2217058  46.4569919
  35.8163159  47.2248370  45.5152528  56.3646788  21.4429799  20.3541242
  56.9102120  20.8770702  20.9003581  56.9887094  21.9316109  19.8174145
  50.7022920  11.9038177  81.4523878  49.9039512  11.8658288  80.9256614
  50.6403636  12.7358844  81.9214952  47.0094949  68.6250633  50.7528664
  47.2881216  67.7093276  50.7476455  47.6013348  69.0519649  51.3723116
  61.9300116  34.4919694  60.2316172  62.4938178  34.7905205  59.5180195
  61.9459319  35.2090468  60.8654771  67.5616105  55.9942750  56.6791872
  67.7310582  56.5655688  57.4282818  68.4212569  55.6437503  56.4460083
  64.1874621  45.2776101  43.3483969  65.1188018  45.0654660  43.2864854
  64.1629387  46.2324698  43.4106334  27.5042990  33.8046458   8.5701594
  27.9260067  33.7116592   7.7159065  27.7778341  33.0279159   9.0581155
  65.5765369  30.9304754  35.0007184  64.7723760  31.3634399  35.2872473
  66.0007372  31.5685318  34.4269851  62.6011663  68.0629640  64.6402412
  61.8258643  68.6134067  64.7504744  63.1286174  68.5205005  63.9854988
  52.3300709  65.3361418  69.1419635  52.5766024  65.8016152  68.3427210
  52.1775869  66.0285578  69.7850347  15.3344213  19.6105742   0.8979129
  14.8842612  19.9103117   0.1081375  14.6293889  19.3999703   1.5101278
  69.9558127  60.5112759  63.2424612  69.5333161  61.3653123  63.3338407
  70.7244052  60.5622590  63.8107026  66.6456801   9.5380342  43.7094735
  67.1040344   9.0229191  43.0455461  66.1829524   8.8887232  44.2391056
  59.3163872  63.0916675  37.1083694  58.5686751  63.1166270  37.7054753
  59.4420906  64.0029296  36.8437340  63.4704978  59.6907575  86.2651438
  63.3477994  58.8618295  85.8024828  63.2657976  60.3613445  85.6134976
  76.9007129   0.4528436  74.0174053  77.0203786  -0.4291759  74.3694757
  77.4688205   1.0044945  74.5551478  79.2880919  25.5001603  68.5418845
  79.8695048  25.5202438  69.3020079  78.6255641  26.1650667  68.7294698
  70.0593828  28.4339589  48.3436643  69.8629499  28.2699540  49.2660245
  70.3429029  29.3478455  48.3179844  79.9856451  38.8133858   6.5607353
  80.4164568  38.7999440   5.7060702  79.0502876  38.8166464   6.3574438
  78.5349899  70.8948725  78.7986066  78.2370821  70.4511063  79.5926811
  78.0254111  71.7046964  78.7712845  59.3021230  21.1078144  37.1625570
  58.7109884  21.6928291  36.6886906  59.0896586  20.2345110  36.8332668
  13.0959924  45.8139505  55.7482303  13.3135398  46.6073929  55.2589919
  13.9373565  45.3783072  55.8844408  33.4970068  56.0475979  56.1261968
  33.5522055  55.5364484  55.3187867  32.9372896  56.7908309  55.9013567
  49.4059469  10.7876523  54.1563188  49.2944540  11.7366743  54.1001190
  50.1868676  10.6698489  54.6971673   4.8142551  41.5781854  24.2169149
   3.9613365  41.3611198  23.8405584   5.4471672  41.1616734  23.6319603
  75.5355490  53.1522939  28.3820732  75.6630215  54.0806255  28.1866681
  74.6330649  53.0953220  28.6959338  16.7149252   9.2022546  22.4390730
  16.4669676   8.4741746  23.0088523  17.2539793   9.7669791  22.9929130
  41.6705267   5.1629077  88.6312646  42.5585264   4.9302817  88.3600205
  41.7610947   5.4263848  89.5470206  33.5805640  70.9394741  40.9895402
  34.4847240  71.1551166  40.7610125  33.1554707  70.7681306  40.1492016
   6.9756874  23.9116987  10.2470117   6.7665764  24.1729721  11.1438064
   7.0291121  24.7361488   9.7636281  77.9820294  22.9066791  46.7950987
  77.9030627  22.0158384  47.1362714  78.6426520  23.3187178  47.3519055
  32.4042894  21.8431613  76.9978277  31.4765391  21.6813929  76.8265323
  32.8506200  21.5363662  76.2085891  79.3977623  59.7757190  41.3849167
  78.9634980  59.1350180  40.8217573  80.2275660  59.3620754  41.6227329
  77.7635213  68.2407308   6.3294582  77.1181867  67.9803039   5.6722269
  78.2545450  67.4399377   6.5134637   4.1155638  60.4622159  53.7779157
   3.6080619  60.6335556  52.9846210   4.9295294  60.9497698  53.6514921
  74.6845455   1.0136838  11.0568014  74.6456492   1.4588845  10.2103292
  74.4631031   1.6921590  11.6946624  69.9219263  20.2927463  83.4864547
  69.5189744  19.8029860  82.7695192  69.5896793  21.1845409  83.3837600
  13.0704288  33.5943660  42.7941614  13.7709957  34.1464434  42.4468166
  12.4889679  34.2033717  43.2494055   4.8146354  16.4890341  15.9036454
   4.5736474  17.3286334  16.2950909   4.9177340  15.8978781  16.6493914
  82.3626834  65.8705656  49.1480211  83.0561489  65.2777595  48.8583344
  82.8186664  66.5441287  49.6526241  50.1775282  24.2168685  75.6858002
  51.0158910  23.8144329  75.4590291  50.3760382  25.1488285  75.7767739
  58.4888025  36.7807430   6.4668949  58.9917175  36.3453675   5.7785952
  58.9537849  37.6034086   6.6193560  69.5527344  30.9835789   1.0362897
  70.1273895  30.2189943   0.9986898  68.7367067  30.6516970   1.4107027
  37.9015235  67.8013495  31.7201251  37.9637402  67.2895363  30.9136463
  37.0388621  68.2137924  31.6761004  69.7593613  33.4779347  34.0293688
  70.0237428  32.5664747  34.1541683  69.4702510  33.7642376  34.8957854
  25.9841970  50.9663629  67.6099827  26.5063995  51.4587777  66.9766865
  25.7365902  50.1666011  67.1459742   5.1114014  22.8100274  61.7925999
   5.2697094  23.5055680  61.1543259   5.9261634  22.7530161  62.2917435
  79.0417966  56.7024979  86.6931714  79.7874578  57.1621005  87.0791593
  79.0434305  56.9723102  85.7747867  78.0489057   1.6063272  88.3559840
  78.6384150   1.4703036  89.0977442  78.6238424   1.8742183  87.6391060
  23.7898683  64.1407996  82.6348224  24.7385982  64.2623169  82.5977142
  23.4755990  64.4481007  81.7845091  51.0518718  31.9161400   5.6395626
  51.4131933  31.0715253   5.3706673  50.7671694  31.7781719   6.5429679
  52.0149026  69.7063937  55.2337909  51.5493295  69.6810140  56.0697511
  52.8918896  69.3817714  55.4381094   4.2934380  16.6352674  59.2580906
   3.6520008  17.0910446  58.7130611   4.4059763  15.7842436  58.8346222
  13.1344004  52.5295697  47.0707707  12.8468761  53.3337712  46.6385421
  14.0085606  52.3666107  46.7164824  39.1339411   2.6316657   7.7736641
  39.4729065   2.3205879   8.6130477  38.7852005   1.8470534   7.3505857
  66.3892009  63.3991293  19.0765802  66.1432238  62.5818562  18.6432307
  65.7897349  64.0518548  18.7148870  61.9940547  44.6911922  55.0249317
  61.5979464  45.2941415  54.3958194  61.2594260  44.1757219  55.3578624
  58.6752927   9.5018767  20.4572398  58.0493596  10.2212339  20.5406948
  59.2802693   9.7889331  19.7732561  46.6996252  47.4976945   3.8624636
  47.5751556  47.7525751   3.5714067  46.3503364  46.9743286   3.1411333
  53.2240224  11.3808776  32.0090612  52.6793537  11.8494143  32.6415493
  54.0306848  11.8939416  31.9611769  64.1414729  30.4841193  23.8913041
  64.1086882  30.2033224  22.9768042  64.2203326  31.4370166  23.8465853
  60.8442681  46.2136902  72.2181027  60.4325457  45.3499440  72.2437749
  60.1466470  46.8191128  72.4691409  49.8089186  30.9342007  23.6298013
  49.4673454  31.7245010  24.0481134  49.4630139  30.9667066  22.7378791
  62.3695483  18.0645595  73.7510371  63.1024843  18.5191072  74.1662758
  62.4554564  18.2717442  72.8204856  21.5221867  69.4733167  28.0138107
  20.8687147  68.7814323  27.9113310  22.3475951  69.0634019  27.7551549
  58.9438182  68.2946318  33.8227789  58.0996636  67.9209993  33.5697305
  58.7514843  68.8140577  34.6034429  30.0265618  57.3132357  63.9412164
  30.9394367  57.2493615  63.6604827  30.0300032  57.9939262  64.6141803
  42.9385713  56.1533548  40.5189769  43.1640150  56.1148856  41.4484537
  43.7044169  55.7933208  40.0716651  30.4124908   6.4957444  11.6188983
  31.0136012   6.8996431  12.2448087  29.8733141   7.2206596  11.3026417
  69.5283270  23.9145756  27.1219779  69.8578738  24.1980497  26.2691748
  68.9710217  24.6354980  27.4150881  11.4277703  71.5417311  55.7967815
  12.3216930  71.5106949  55.4559430  11.1228737  70.6354807  55.7522832
  86.7338829  61.5757907  62.1064348  86.7520478  60.8814916  62.7651083
  85.9228912  61.4243165  61.6210692  76.5375354  13.3489469  60.7465848
  75.9265530  13.6797002  60.0881514  77.1025522  12.7436251  60.2664043
  20.9670514  64.6558418  68.4775388  21.7926800  64.8348209  68.9275784
  21.0409856  63.7442837  68.1950013  80.1595135  26.7339689   2.4622687
  79.9023064  25.9746285   1.9393170  79.3925871  27.3065137   2.4465181
   8.4119087  58.8482115  13.7025152   9.2300744  59.2756369  13.4492483
   8.6687996  57.9544286  13.9292107  17.0717570  43.3506415  13.6130495
  17.3113588  43.6473481  14.4909948  16.1833015  43.0079464  13.7102023
  71.0015233  22.9187493   9.5362555  70.1712944  22.6820154   9.9496669
  71.4410093  22.0819468   9.3851079  86.1632114  30.7601710  28.1122830
  85.8177886  30.8907718  27.2291871  85.8338940  29.9002094  28.3735261
  18.8170496  44.7364447  51.5982047  19.3373768  45.0124869  50.8436901
  17.9287859  45.0311742  51.3973215  74.0274441  53.1846223  40.3292248
  74.0284390  53.5594119  39.4484504  73.4463026  52.4266319  40.2663206
  50.4471126   2.7314412  27.3287422  50.4088361   3.6871963  27.3647817
  49.6400237   2.4431695  27.7550504  46.8185230  18.2920702  62.4654759
  46.2271267  17.7453743  62.9827823  47.5193932  18.5282345  63.0731264
  56.4433657  51.9584836  27.7914159  56.7221621  52.4410874  28.5696177
  57.2591808  51.7328989  27.3444381  47.5305092  55.9325257   0.4647725
  46.6299169  55.9396968   0.1405599  47.6347414  56.7781085   0.9010718
  44.1078785  58.8835302  37.2021913  45.0487798  58.7347428  37.2959935
  43.7263166  58.0057152  37.1930626  26.2302476  26.3751355  75.7333296
  26.4924672  27.2902203  75.6328684  26.4005402  26.1768952  76.6541624
  27.8392298  64.9780888  22.4824322  27.9695068  64.7968485  21.5516198
  27.1076633  65.5949157  22.5062398  52.0420708  38.5728767  21.2866691
  51.5541556  39.1526719  20.7018546  51.8204981  37.6905883  20.9888359
  35.5543449  39.6566393  41.3691572  35.6281550  39.6785369  42.3232559
  36.3702541  39.2516450  41.0750423  34.5583366  66.1313872  81.5964464
  34.7265279  65.4436774  80.9522424  34.5156816  66.9369607  81.0812147
  27.1239428  49.2599470  43.0566802  26.6412710  49.7795253  43.6995629
  27.9919008  49.1459729  43.4438374  37.3899865   0.2556524  81.3013672
  37.7228892   0.5697714  82.1420436  36.6148974  -0.2584074  81.5276666
  71.1099675  59.3859585  10.4224670  71.3455563  58.6180566   9.9018362
  70.1678766  59.2975244  10.5669521  47.2979686   5.1217385  55.2997501
  47.2860439   4.2759083  55.7477020  47.9761141   5.0288589  54.6306283
  16.0383208  45.3871349  58.2842230  15.2554220  45.2532403  58.8184268
  15.7683527  45.1443490  57.3985571  80.4111334  27.3083651  42.6341960
  80.7925596  28.0758845  42.2079802  79.5392334  27.5942948  42.9067146
  53.0949491   9.5693821  23.0135343  53.8941557   9.3046920  22.5580788
  53.4025956  10.1002331  23.7482334  66.6884127  19.9503544  42.1217612
  67.3056579  20.2934157  41.4755807  65.8935877  19.7680252  41.6205215
  68.2881283  12.1245169  45.3716610  68.3911190  12.4455844  46.2675072
  68.1900292  12.9165405  44.8431659  73.6526906  65.7202469  14.0702613
  73.6586855  66.4697003  13.4748491  73.8415403  66.0959754  14.9301425
  14.3721563  41.3753393  27.2577844  13.5599271  41.2913534  26.7583229
  14.2639141  40.7733251  27.9940550   6.6474997   4.6607463  77.6755551
   6.7024906   5.3293738  78.3583033   6.8237415   3.8377808  78.1315138
  84.2936997  42.2853985  44.6403408  84.2059928  41.7650564  45.4389543
  84.9788006  42.9222722  44.8434674  81.4964419   6.1629643  59.8942817
  81.1358763   6.0341754  60.7715717  80.9574206   6.8561040  59.5131711
  64.3133391  45.3667069  26.7130642  65.1800394  44.9631461  26.6661479
  64.1562185  45.7000657  25.8296522  83.4883239  41.5322799  60.3460260
  82.9825567  42.1475184  60.8769807  83.1853462  40.6686518  60.6263521
  72.2912895  35.3612052  30.6460980  71.8227230  35.6025810  31.4451068
  71.7743893  34.6479535  30.2715075  50.5949001  70.0263422  23.8269989
  49.7140862  69.6603458  23.7467159  50.9144874  69.6991710  24.6678644
  27.4595768  63.2182230   4.0472158  26.8753121  62.5299988   3.7290742
  28.1961804  62.7463731   4.4358091  31.0340117   8.2414569  79.2345835
  30.9741046   7.5003800  79.8374500  30.1466962   8.3422121  78.8899803
  10.1815151  40.7982891  82.7704809  10.7382565  40.7311890  81.9947436
  10.5296491  40.1407855  83.3727463  69.9734235  34.1608493  12.9812891
  70.0859912  33.3208405  13.4261999  69.1849336  34.0470635  12.4506589
  57.6200313  16.7805054  67.3597615  57.8599180  17.6144735  66.9558019
  58.4568894  16.3525579  67.5407627  60.2284148  36.0102050  81.8217402
  59.3270834  35.8460750  81.5444408  60.5633506  35.1485250  82.0698478
  30.8579326  23.2301129  21.5513651  31.3552880  23.9456050  21.1552080
  30.5076231  23.6015053  22.3610457  45.2786153  69.7491793   6.8409586
  45.3586843  70.5683305   6.3522745  46.1396183  69.3383754   6.7625638
  79.4519802  46.8834868  71.3765186  80.2044520  46.9424741  71.9651938
  79.3562104  47.7670204  71.0209510   6.3336301  20.6377805  65.4948643
   5.4815773  20.8492633  65.8763259   6.7485233  21.4880059  65.3492200
   0.5841432  46.7252353  13.4746134  -0.2002306  46.1843306  13.5663289
   0.9581319  46.4640678  12.6330935  10.0508106  14.5455163  80.8305016
  10.5256736  14.1445178  80.1025338   9.7655913  13.8057855  81.3668598
   1.7048999   7.3986244  61.9434316   1.1316921   7.2214582  62.6892713
   1.1460911   7.8562052  61.3152721   6.7260559  38.6300939  71.3110872
   7.3327359  39.2191021  70.8624888   5.8582684  38.9221084  71.0319739
  59.7634001   5.5609819  31.1054952  59.8155849   5.8105610  30.1828800
  58.8332928   5.3918970  31.2556370  22.6728597  47.6245292  53.7197944
  23.0516374  47.1871655  54.4823378  22.5713056  46.9286341  53.0704497
  68.5721485  29.5761185  84.2850341  69.5191395  29.4677287  84.3727360
  68.3625691  29.1769710  83.4406470  38.4493789  68.1649135  64.9761690
  37.9116136  67.3734343  64.9516519  38.3958386  68.5184561  64.0882654
  80.7618624  34.8220776   1.1590518  81.2274419  35.5385713   1.5904501
  81.1456878  34.7800477   0.2831845  57.9563994  33.3681062  74.9468051
  58.6065872  34.0426378  75.1430056  58.1795899  33.0695280  74.0651765
  20.5527152  22.5057558  25.9078400  21.1944331  22.0801998  25.3392171
  20.8029263  23.4296560  25.9019562   2.8402633  11.9174537  71.0077960
   3.0230138  11.1294166  71.5194910   3.6277867  12.4530842  71.1033916
  29.3483917  69.4482901  57.0179196  28.6733505  69.4851444  56.3402817
  28.8755832  69.2056575  57.8140436  66.3871353  60.1654629  18.0039691
  66.4611042  59.5691635  18.7490781  66.7616952  59.6788741  17.2696885
   8.2492825  56.0279002  67.4893481   8.7214354  56.7556673  67.8938955
   7.5315845  55.8419495  68.0947932  10.9761950  33.1251653  26.7826385
  10.1414695  33.5901719  26.7257697  11.6364054  33.7959446  26.6082562
  77.2524341  53.1401963  35.3312615  77.6362185  53.5268056  34.5441944
  77.3978684  53.7943303  36.0147741  65.0569678  47.1804253  85.7582183
  65.2794331  48.1049430  85.6486371  65.4394875  46.7497869  84.9937178
  85.0568546  28.4330902  14.4273267  85.6333780  29.0197332  13.9377325
  84.8526325  27.7291794  13.8116688  41.2980034  57.8961464  55.1006671
  40.9264889  57.0965492  55.4732973  40.8787191  57.9785140  54.2441345
  53.5173785   2.5146201  62.0544983  54.3052291   2.9773583  62.3397989
  53.6369233   1.6196788  62.3723364  54.7042783  61.5161257  81.2162115
  55.1786205  60.9004120  81.7748957  55.3104698  61.7056899  80.5000905
  61.1293748  56.5826458  39.0270079  61.3654533  55.6597801  38.9331056
  61.2309491  56.9465405  38.1475222  20.0336367  29.4582162  52.9811466
  19.4266907  28.9151007  52.4782808  19.6613154  29.4801998  53.8626937
  56.7648184  48.1512744  15.0665796  57.6353014  48.5441442  15.0022023
  56.5876696  47.8161991  14.1876173  83.4617315  53.4385131  70.1466361
  84.2719732  53.0238740  70.4429715  83.7523677  54.1720984  69.6047735
  67.1611788  68.4244267  36.8284991  66.8125683  67.7356877  37.3944859
  67.1524589  68.0410081  35.9514894   1.7058996  26.1388942  10.7440437
   1.2710420  25.2919314  10.6451264   0.9909479  26.7752328  10.7562526
   5.7810112  43.1937040  26.4243948   6.7113767  43.4160961  26.3898463
   5.5647797  42.9285366  25.5304361   0.9428144  39.1655572  59.7828125
   1.6437948  39.4475909  60.3704478   1.3931520  38.6953615  59.0811403
  66.6158327  45.5031948  54.4759625  65.6859647  45.5494390  54.2536140
  66.9522348  46.3781303  54.2821756   8.3432132  55.1401094  52.8591218
   8.8773920  55.6532612  53.4653892   8.9751258  54.7459055  52.2578551
  79.4850655  45.0434785  59.5134573  80.4220199  45.2363269  59.4794310
  79.2032668  45.0624151  58.5988739  45.7909845  11.2780932  22.3157906
  45.0416571  11.8671585  22.4037809  45.4062510  10.4017458  22.3007183
  56.3066641  24.7084865  32.0769504  56.9872244  24.2596395  32.5785537
  55.6105188  24.0583209  31.9826197  34.1965831  15.1189566  74.9422376
  33.7112427  14.6719204  75.6356604  33.9335859  14.6705825  74.1384808
  78.8296717  55.7670166   9.7992771  78.0566608  55.2372461   9.9942879
  79.3276217  55.2424086   9.1723289  47.6298578   1.2084069  33.4620137
  47.4858856   0.3478400  33.8556230  48.3265874   1.0652713  32.8214578
  31.1326729  13.9494936  80.0886559  30.8907251  13.0265114  80.0125190
  30.8202335  14.2082698  80.9556324  23.3085573  59.4114384  80.2661388
  24.0533253  59.6949722  80.7963851  23.6641835  58.7255885  79.7010090
  64.8902527  46.7888650   1.9065711  65.1748238  47.6961189   1.7963827
  64.7416054  46.4744818   1.0147757  47.6984251  43.3864305  51.1168731
  48.2202586  42.6182384  50.8849190  48.2406771  43.8635640  51.7449959
  41.2940817  23.8893888  79.8176058  41.6565168  23.7514530  80.6927322
  41.3027401  24.8395186  79.7018032  61.4819635   3.7419267  28.7716317
  61.1881099   4.6434694  28.6408541  61.6070627   3.6656186  29.7175488
  61.5794968   6.7552229  29.0521600  62.2757952   7.2368911  29.4986980
  61.2661808   7.3576337  28.3775000  81.7149970   5.5943090   5.0724341
  81.8599586   6.4783537   5.4096031  82.4570493   5.0875219   5.4022173
  86.3125664  30.8039146   8.7295674  85.5963745  30.6519335   8.1129617
  87.0450329  31.0851836   8.1812860  54.0720555  63.0665630  63.4292584
  53.7928992  63.4216370  62.5853235  54.5010820  62.2392226  63.2109100
  75.6981713  22.0850179  87.2435231  75.8160959  22.8429342  87.8161386
  76.4909317  22.0641609  86.7074936  45.4688985  66.6995424  18.8478468
  45.9395983  67.2182967  19.5002022  44.5449687  66.8206838  19.0667310
  29.1699318  68.8586379  38.3470342  28.9647001  68.8497331  37.4121371
  29.4089981  69.7670371  38.5311266  56.8669991  66.8410066  54.1790864
  57.4798230  66.5556837  53.5013921  56.2405561  66.1211507  54.2539768
  67.2568829  28.7930741  81.3103640  66.4615614  28.4879862  80.8737671
  67.2201312  29.7466775  81.2360555  54.6384440  57.8555088  68.9631234
  54.1881427  57.0129797  68.9030779  54.3329274  58.2320906  69.7883976
  79.8191402  30.7699465   9.8357004  78.9637840  31.0939370  10.1178843
  80.0804422  30.1551203  10.5212234  55.4528180  62.6458982  40.5444380
  54.5482539  62.3863599  40.7194681  55.9339578  61.8198160  40.4962241
  59.3192857  22.2911564  71.7135824  59.2217551  23.2304317  71.8700481
  58.6471961  22.0855322  71.0637778  47.2857667  32.7807351  13.2233124
  47.9291822  32.2527585  13.6960586  47.7810037  33.1761508  12.5059432
  61.8336373   6.2091948  23.4727336  61.1582588   6.6422215  23.9948291
  61.8750398   6.7194741  22.6639489  85.8993235  20.5009055  56.8103376
  86.8366959  20.4397461  56.6264232  85.7055707  21.4368369  56.7581456
  60.3979818  31.5271952  82.4584956  60.5394304  31.2999478  83.3775074
  60.7609482  30.7881030  81.9704077  67.3002291  21.1675283  36.0697803
  67.8004811  21.0901075  36.8821754  67.2294946  22.1104443  35.9209927
  29.8623192  69.9418286  73.5662787  29.2075912  69.5194053  74.1222658
  29.4625779  69.9596364  72.6967261  50.5020397   3.3834761  48.9987140
  51.3301913   3.2791849  49.4672435  50.1840288   2.4895116  48.8725063
  54.9974513   4.3343803  88.6880002  55.8239785   4.6673238  88.3383814
  54.8787234   3.4879767  88.2570287  64.8587008  69.0105597  70.4700991
  65.1731202  69.1062875  69.5710949  64.1536401  68.3659700  70.4098889
   9.6821724  45.6515059  60.2873411   9.7095677  44.8765593  59.7261467
  10.5316629  45.6579554  60.7284264   0.0957296  32.0898684  55.8651292
   0.5224765  32.9085734  56.1177973  -0.0573562  31.6341805  56.6928641
  12.2906621   7.4700554  11.7987652  13.2407002   7.4544210  11.9145880
  11.9406946   7.2358197  12.6583513  85.6749615  21.3226347  65.4331989
  85.8325788  22.1603125  65.8687268  86.4801864  21.1513537  64.9448265
  49.8279502  18.6613205   6.4486947  48.9008905  18.8047611   6.2583874
  50.1265777  18.0729907   5.7552096  38.9505185  36.8373403  13.0103843
  39.5810691  37.2628837  12.4293932  38.1987109  37.4296752  13.0229009
  50.4846034  65.4092586  23.2516077  49.8426716  65.3693527  23.9605243
  50.0605729  65.9356764  22.5738804  42.6360868  63.9894671   6.6352983
  42.6254840  63.6919826   5.7255608  43.1648894  63.3369874   7.0945039
  15.2462428  27.6988179  83.4958345  15.6863738  27.0050792  83.0046696
  14.4610241  27.2808441  83.8493333  82.1670846  42.9771084  20.1991744
  82.0872431  42.4614306  21.0016291  81.4720690  42.6450315  19.6309226
  82.3793580  52.8836428  42.4954903  81.7546284  53.4987316  42.8796916
  82.1982681  52.9137810  41.5560596  50.4916504  14.8551996  82.4038503
  50.5957350  15.7886478  82.5884383  49.9286853  14.5331559  83.1078317
  81.2454655  32.6103801  15.3281339  80.9498663  31.7877800  15.7182389
  82.0937073  32.7788427  15.7384241  58.1502127   9.4288205  11.5280803
  57.4643215   8.7839631  11.3550364  58.1589343   9.9842464  10.7485562
  48.4894987  25.2696790   3.2765981  49.2055461  24.6561038   3.4410167
  48.5441428  25.8996561   3.9951902  72.3742644  10.5598884  36.7076892
  71.9585590  11.3035682  36.2713852  72.4444059   9.8911439  36.0264456
  26.0070892  37.6395697  68.0629675  26.5369564  37.9886520  68.7796363
  25.1282191  37.5569642  68.4330965  13.0623443  63.5904474   5.8483339
  13.7892436  64.0459402   6.2730403  13.3134378  63.5466969   4.9256911
  71.5322774  54.8199660  71.9434430  71.2386226  54.7901106  72.8539963
  70.7271331  54.9184213  71.4352292  77.3323472   7.8206601  12.5585595
  76.7573304   7.0705472  12.4071719  78.0364225   7.7157177  11.9186401
   6.1960739  12.1766782  25.5967219   5.6082614  12.8818483  25.3257175
   6.0874828  12.1260138  26.5463919  27.1607310  38.5486628  80.3700170
  27.2860562  39.0832521  79.5859636  27.4633966  37.6767385  80.1162982
  25.4726698  51.0899018  14.7199619  25.5270779  50.1549853  14.9179588
  24.9863911  51.4625756  15.4554066  82.7443800  46.8691386  51.7857900
  82.9907244  47.4043844  51.0314306  81.7949462  46.9711908  51.8520662
  78.5299885  57.1017595  79.3050671  78.7020349  57.2961901  78.3837481
  79.1117476  57.6898602  79.7866538  56.7014334  66.5236758  10.9958161
  55.7660666  66.7167219  10.9321453  56.9450354  66.8070581  11.8770564
  83.1266890  60.9295647  24.8864030  82.4304789  60.7656736  24.2502716
  83.0771064  61.8698006  25.0588269  13.2991284  38.0269408  45.4971932
  13.9810789  37.6371912  44.9501369  12.5084040  37.9866626  44.9592672
  17.7825973  55.3545131  88.3681150  18.7071872  55.2333860  88.1520280
  17.6802664  56.3017570  88.4602519  50.8332848   8.1048239  20.3015612
  50.5661934   9.0239965  20.2975932  50.3001397   7.7034452  20.9877705
  25.5642343  58.4593651  15.7216184  25.2767033  59.0431480  16.4235837
  25.6137274  59.0210808  14.9481473  60.3187424  51.1347443   0.1055991
  60.4394412  51.2841166   1.0433366  61.1449537  51.4130539  -0.2895596
  63.2827872  64.3064789  57.2179000  63.7816179  65.0600875  56.9025052
  62.5543013  64.6891185  57.7069062  54.8026116  13.4054718  79.6180547
  54.2017620  12.6695796  79.7349915  54.2519621  14.1135025  79.2838248
  50.3917104  63.8661501  75.3997995  50.7221629  63.7120317  76.2848308
  49.5944164  63.3391471  75.3466786  36.5819374  59.1255499  49.0309636
  36.4638967  59.6932860  49.7925238  36.3508094  58.2515934  49.3456250
  31.5807888  65.5581064  19.7372958  32.4651172  65.2851193  19.9815768
  31.7109079  66.3423657  19.2041558  27.9915709   5.6899270  18.3775171
  27.5454052   5.0958237  17.7740196  27.4627599   5.6629339  19.1749268
  76.5573463  64.4732805   0.2609453  76.5463578  63.6526071  -0.2316054
  77.1858220  64.3206951   0.9666136  53.6775233  49.1536889   1.9283727
  53.0949972  49.8841789   1.7203354  53.8785914  48.7585825   1.0800247
  78.2712504  23.8088471  18.9474628  77.8989155  23.0767457  19.4390177
  78.5253281  24.4429715  19.6179571  67.8737361  25.1900844  51.9123381
  67.7796215  25.7661124  52.6709987  68.8087849  25.2128307  51.7088725
  75.4597409  22.1018809   6.6068327  74.8859005  21.3369014   6.5650545
  75.8505138  22.0607738   7.4796664  23.3484512  55.1758651  30.8440933
  23.8760234  55.5705557  31.5384410  22.8322903  55.9017340  30.4934879
  60.7157636  58.2972762  52.1018032  60.7065834  57.3409561  52.0618089
  60.3148010  58.5752973  51.2782954  36.7369329  35.0101615  16.0225120
  36.8454757  34.5455512  16.8523238  37.5662287  35.4710860  15.8958274
   3.5932836   6.9309777  11.8841527   4.1306913   7.4702067  12.4643740
   4.2257160   6.4424950  11.3572318  62.9524865  17.6586548   1.7806761
  63.7788060  17.2184325   1.9797549  62.9372196  17.7188249   0.8254911
   2.3923728  38.7754657  71.8931143   2.3387574  38.2043344  72.6593821
   1.4805138  38.9543559  71.6634550  81.5712222  31.1508406  50.1809128
  81.7421808  30.8544759  49.2869481  82.0398658  30.5259221  50.7341596
  27.2319090  40.7129135  62.7294085  27.2074737  39.7887126  62.9773753
  27.3261060  40.7029266  61.7769071  25.7911841  16.7366151   6.0587679
  26.2961710  17.2953769   6.6495345  26.3645037  16.6068941   5.3033150
  47.8296092  59.9259095   4.3054325  48.3750064  60.3441419   4.9716572
  48.0298037  60.4012050   3.4990528  70.9240663  45.6621401   2.7482754
  71.6865022  46.1915336   2.9820829  70.1761326  46.2408289   2.8964179
  17.2729343  71.6403470  63.8075597  17.4675339  72.2676402  64.5038830
  17.2299824  70.7940490  64.2527190  35.6401016  10.2218321   8.5035098
  36.2974484   9.7165439   8.9818516  34.8135532   9.7763514   8.6895112
  46.2914081   8.0739138  17.0540139  46.4695706   7.2870281  16.5389403
  46.8343552   7.9761696  17.8362456  81.6572140  22.7589336  42.3720889
  81.4454089  22.4333725  43.2469491  81.1319714  23.5536760  42.2786197
  63.1635149  38.4883587  67.1975169  63.1478691  38.6222153  68.1451821
  64.0927920  38.4090633  66.9821379  69.8159266   6.9175884  66.2285757
  69.7860308   7.0848421  67.1705758  70.6244339   6.4218821  66.0988719
  69.0921909  21.8482879  68.6000725  68.7876200  22.5503960  69.1749749
  69.4604178  22.3021872  67.8420381  34.1863471  65.7080351  58.5807179
  34.8147825  66.3025903  58.9903578  34.3761431  65.7669503  57.6443748
  54.6632423  28.8385282   4.1448680  55.6043568  28.8835246   3.9760168
  54.5780521  29.0300080   5.0788433   1.4725343   5.0217054  84.8533451
   1.3911350   5.0679783  83.9007356   1.6659153   4.1015779  85.0327918
  64.6846700   8.1426348  75.7585624  64.0522264   7.5042752  75.4287988
  64.1536419   8.7839912  76.2306883  68.0498664  43.6581316  72.6841858
  67.5364464  43.1583842  72.0494541  67.4141967  44.2389929  73.1022241
  27.7540306   3.2241961  27.1507785  28.4926914   3.4310151  26.5782072
  27.5260783   2.3209268  26.9308374  73.5217842   0.6684215  34.9356913
  73.1164215   0.0188374  35.5101070  72.8708509   0.8220210  34.2509104
  59.1393510  61.0191920  19.5525307  58.7845053  61.7133295  20.1079491
  59.9578075  60.7658045  19.9793277  50.4649424  23.4700966   3.7882418
  51.2563737  22.9485665   3.6545454  50.1785146  23.2479239   4.6741482
  61.3874853  51.6215721  38.3260412  62.0040391  51.9372522  38.9866768
  61.9190507  51.0820750  37.7407098  34.1168417  18.7455296  17.6601405
  33.6015230  17.9584586  17.4835118  34.6351330  18.8756882  16.8659965
  51.7027438  36.4403655  19.6825949  52.2949281  36.9651347  19.1439235
  52.1468304  35.5974970  19.7752865  65.9198063  47.5578721  13.2035281
  66.1911483  46.6617297  13.0046965  66.7060942  47.9731797  13.5577918
  44.9783110  58.0623574  69.8051906  44.2631720  58.3206117  70.3866653
  45.5452634  58.8325970  69.7661030  25.6604809  59.5605218  64.6290622
  26.4410057  59.5362391  65.1826172  25.3546116  60.4657544  64.6858940
  42.4674258  18.9092154  64.2783740  42.8163759  19.7563869  64.5554412
  41.8436366  18.6712089  64.9642833  33.4258250  61.9142886  46.1186926
  33.0258050  62.7195628  46.4469445  32.8252538  61.6082973  45.4390490
  71.1547573  26.8061620   8.5368573  72.0878491  26.9782833   8.4105810
  70.7221507  27.3179884   7.8533976  61.0326383  23.3603999  83.3370915
  61.4452306  22.5014950  83.4280959  60.2509384  23.3101056  83.8872257
  22.0658504  45.0572578  14.4358393  22.9951870  45.2755742  14.3658159
  21.8995123  44.4769433  13.6930079  48.4085970  35.7811339  42.6412031
  49.1216540  36.0498804  43.2204759  47.6249653  35.8264565  43.1890161
  55.9780330   2.5584857  81.9519066  56.8632476   2.4031490  81.6225171
  56.1034548   2.8072746  82.8676606  16.7337288  47.1575488  85.8528084
  16.4033556  46.4482146  86.4041073  17.5761838  47.3912677  86.2425222
  11.5950520   5.2273816  82.1696707  12.4130788   5.7146984  82.0717609
  11.4501155   4.8278975  81.3119774   7.2733260  49.6092113   1.9427726
   8.1790231  49.8924140   1.8173101   7.2628299  48.7003191   1.6427116
  55.7464783  42.1244763  81.7393599  56.4462817  41.5031433  81.9404878
  54.9400759  41.6202880  81.8477173  54.2334735  34.6190491  68.9511423
  54.6646121  34.2859066  68.1641433  54.8387675  35.2753832  69.2962170
  15.4342083   2.8708247  60.4269658  16.0605722   2.6418579  59.7403259
  15.9360329   2.8078164  61.2396367  26.7073562  37.6051549  20.0768035
  25.9852647  38.0806747  20.4875304  26.9402429  36.9280207  20.7120081
   2.2319605  67.1557829  27.0686078   3.0223662  66.8011313  26.6615293
   2.0683840  67.9746770  26.6007542  18.0277839  68.9279604  54.1336912
  18.7786862  69.0754728  54.7086848  18.2128626  68.0908250  53.7080364
  52.5561537  10.3395001   6.8017859  53.2345649   9.9926485   7.3811684
  53.0264176  10.5942117   6.0079308  38.5014821  45.6712568  25.9148190
  38.0391383  45.6533408  25.0768756  37.8996597  45.2514205  26.5294563
  83.1523351  69.9768963  30.9596239  82.4333621  70.4935356  30.5957648
  83.4789380  69.4660244  30.2189672  74.4312295  37.0136191  76.5481207
  73.6665729  37.5882830  76.5840869  74.9173645  37.2114309  77.3486051
  73.8947063  14.4730050  20.7594923  73.9578973  15.4185228  20.8945289
  74.0092225  14.3575994  19.8162005   0.6797026  52.3325543  46.3632428
   1.2429356  51.5646185  46.2669357   0.5744663  52.4352941  47.3090767
  32.9753191   4.8598250  77.5847561  33.3326188   4.1910605  78.1689844
  33.2900231   4.6114491  76.7155595  80.2470937   1.2563687  69.8773797
  80.4740864   0.7514451  69.0965095  80.5662858   2.1396628  69.6926100
   7.3519140  52.0537911  75.9512093   6.4633853  52.2715650  76.2328528
   7.2325277  51.3814759  75.2804106  21.1488848  31.5321238  36.6804256
  21.0968315  32.4327916  36.3605510  20.8475774  31.5823421  37.5875771
  81.2573297  27.6007924  35.5410678  81.5062695  28.0511525  34.7339515
  82.0101306  27.0471218  35.7483633  50.0721860  43.5084726  29.3858971
  50.6587990  43.8726942  28.7229796  50.5303726  43.6491259  30.2144583
  45.3322685  63.3035714  35.7902576  44.9217456  62.4531383  35.6338405
  44.8641297  63.6602930  36.5451269  17.8549665  64.5398325  20.1620836
  18.3854741  65.1606931  19.6627585  18.4895612  63.9268612  20.5332811
  12.5203206  26.5251133  84.2560363  11.9476010  27.2851700  84.3586902
  12.1692938  26.0616731  83.4956186  80.5787233  22.0851529  17.0429718
  79.6901575  21.7610210  16.8959309  80.9238679  22.2447822  16.1645496
  12.2997442  48.4138893  17.0554032  11.7595973  48.8576380  16.4015223
  11.6745650  48.0964426  17.7070245  20.1219598  14.1186652  27.0049287
  20.7623017  13.8028553  27.6424695  20.5218134  13.9379923  26.1542194
  55.0871391  59.0460136  32.7924768  54.9438293  59.6706247  32.0814528
  55.4318430  59.5760994  33.5111006  60.5684867   0.8474055  15.4022265
  60.1186693   1.5191236  14.8896925  60.6525421   0.1054368  14.8033535
  63.8375997   4.3135818  47.7554670  63.8137283   4.2510345  48.7103230
  63.1597472   4.9542762  47.5403893  84.4978591  68.0944113  17.2700397
  83.6957198  68.3871596  16.8374859  84.2525027  67.9987362  18.1902996
  49.8182346   0.5331418  11.1687926  50.7209313   0.2794911  11.3612292
  49.8309219   1.4901988  11.1794183  74.4614370  18.7841474  28.0869346
  74.5267486  18.5848160  29.0208688  74.0412619  18.0129428  27.7062401
  52.7517068  64.1646192  48.0671467  53.1774814  64.6284083  48.7881512
  51.8386437  64.0811392  48.3420625  30.9519890  46.1676499  16.7410367
  30.9324967  46.1257680  17.6971213  31.1393379  45.2702362  16.4657533
  21.2637146  57.9855963  10.0354315  20.8399193  57.1881635  10.3528119
  20.7398772  58.6976320  10.4026255  54.2966590  41.4537430  66.7046115
  54.2860569  41.7651575  65.7995477  55.1991681  41.5884334  66.9936924
  16.2664649  25.5472573  77.8356264  15.3927100  25.7869332  77.5268554
  16.5766283  24.9023980  77.1998693  28.5605628  37.5541095  23.1358395
  29.2212678  37.0632575  23.6244754  28.3227716  36.9779397  22.4093991
  57.8582178  37.4012774  81.8879562  58.6201514  37.9790856  81.8452164
  57.5456595  37.4833060  82.7889614  22.5445367  49.7153829  71.6442794
  22.1450211  50.5621979  71.8430844  23.0229576  49.8619348  70.8282721
  47.3212690  47.8969580  61.7411363  47.7321272  47.0537104  61.9318212
  47.1851717  47.8882801  60.7937008  45.3674829  47.3963364  47.0648363
  45.3499222  48.2143726  46.5681067  44.7705746  46.8162442  46.5921573
  14.9146538  14.4606903   0.8206366  15.8669339  14.4900354   0.7282608
  14.6332566  13.7970980   0.1908010  16.1907307  63.7718400  50.6728092
  16.0016158  63.8950879  51.6030120  15.4993033  64.2561683  50.2216041
  85.8225278   1.1388682  12.3998016  86.1066555   0.2504192  12.1849488
  85.3646589   1.0483892  13.2355058  60.7688955  44.9423274  58.6280427
  60.4007070  44.5510930  57.8358276  60.7157487  45.8859037  58.4761510
   6.6410728  32.4999575   2.8503861   7.5827374  32.4387247   3.0108542
   6.5546303  33.1894036   2.1920369  70.4764763   2.8354305  19.4029097
  71.0741950   2.5041888  18.7326536  70.0163208   2.0578408  19.7188892
   6.2348597  35.0885182   4.4501052   6.3644117  34.1926812   4.1387788
   5.7999321  35.5341736   3.7231519  40.5687112  64.2214788  11.6379187
  40.5916137  64.1027418  10.6883878  39.9709122  63.5421142  11.9498993
   1.8880402  69.9261046  44.4059328   1.6041986  70.7029363  43.9240633
   1.3529948  69.2158011  44.0517757   7.3722355  10.4623085  13.5041238
   7.9014731   9.7577889  13.8780108   7.5027164  10.3842080  12.5590805
   8.0730060  23.4704396  70.4710249   7.3407057  23.3838820  71.0813330
   7.6602663  23.5431512  69.6104491  10.8781943  22.8735299  16.9726158
  10.9125202  23.8301140  16.9732212  11.0215339  22.6292990  16.0582652
  20.0367863  41.6460359   9.5746538  20.4538286  41.0492207   8.9532690
  19.6043748  42.2999060   9.0253761  28.8619246  15.6208494  37.0466032
  28.5182221  14.9289461  37.6117318  29.7620712  15.3534349  36.8609764
  75.4634683  59.6447887   8.6558117  75.2159891  58.8240199   9.0816338
  76.2626145  59.4328878   8.1734267   7.8854098  17.7620267  56.4250674
   7.9814739  17.2923278  55.5965830   6.9459518  17.7373618  56.6068422
  80.8802065  41.0627841  22.1875680  80.2406957  40.7227546  21.5617583
  81.1986240  40.2874275  22.6498064  32.2115100  58.4450808  46.1046788
  32.2079343  59.3862726  45.9303882  31.3992074  58.1256537  45.7117887
  42.7353873  63.7843362  76.2636979  42.0267269  63.2882251  75.8539345
  42.3036533  64.3015540  76.9436415  18.9230161  49.1482688   6.8221502
  19.7490574  48.7560566   6.5392065  18.4339055  48.4227291   7.2102156
  82.6733738  36.5503889   2.4964085  82.5414578  37.0319760   1.6797667
  83.3981574  35.9540842   2.3084160  11.7332468  51.4294577  50.1957900
  12.5266172  51.9626519  50.1457996  11.4693610  51.3066387  49.2839174
  49.9974241  18.2949053  17.8882855  49.3985760  17.5659468  17.7263214
  50.4074092  18.0861054  18.7276582  71.9877989   6.1154475  77.4393001
  72.5151491   6.9049876  77.5607909  71.3839828   6.3374390  76.7305281
  55.2719604   2.7847502  28.9209864  56.0612003   3.2773395  28.6958464
  54.5673962   3.4316766  28.8848289  74.0380307  36.4735168  51.9169789
  73.9071026  35.5569246  52.1597721  73.1740656  36.8733963  52.0164400
  49.7819243   5.6535511  71.6189024  49.6894432   4.7335921  71.3712040
  50.7199749   5.7673148  71.7717122  18.2392169  39.4305388   4.3398543
  17.6013651  39.8080328   3.7341522  19.0221042  39.2911456   3.8070420
  23.3060880   3.7776163   2.8220627  23.3046699   4.2640859   3.6464274
  24.0447900   3.1740774   2.9013847  13.2562477  69.0734510  85.4908023
  12.5384941  69.2871899  84.8946670  14.0426336  69.1267545  84.9476746
   6.5975281  24.6421535  12.8036146   6.5060367  25.5208665  12.4352063
   7.2344709  24.7440717  13.5108264  74.4006303   4.3470150  23.5105792
  74.7675394   5.0807543  24.0037690  73.7698984   4.7506982  22.9143837
  35.4877028  62.3090537   9.3019791  35.9157046  62.3512886  10.1571180
  35.2923445  63.2210221   9.0866178  60.1013856  21.4316216  47.3108898
  60.5977431  22.1841332  46.9890399  60.7638400  20.8485534  47.6815883
  31.4282640  28.0944819  66.9431968  32.1547255  28.5123422  66.4807270
  31.6968941  27.1803410  67.0349365  77.3836647  40.3275696  60.2976894
  78.1803510  40.5074512  59.7985248  77.0694621  41.1908217  60.5665844
   7.6572373  53.9082636  72.0581393   7.9637481  54.0820033  72.9481379
   8.4171360  53.5347288  71.6117566  80.0217399   8.6249036  36.9241473
  79.8818171   9.2487577  37.6365092  80.1288253   7.7807865  37.3625888
  50.3679956  16.9719025   0.8187479  50.2882673  17.4056817  -0.0307878
  51.3070122  16.8172501   0.9215210  28.9118113   7.9516813  21.1480801
  28.2435923   7.2972091  21.3515040  28.9040349   8.5436956  21.9002040
  53.9149715  69.1681063   4.4016870  53.4236505  69.8824581   3.9960554
  53.9819145  68.5037628   3.7158311  20.8415028  52.4207516  35.8329816
  21.3109809  51.5963827  35.7055529  20.6937558  52.7516613  34.9470349
  71.9865480  35.8869167  57.6321284  71.0489123  35.8025675  57.4590493
  72.0392982  36.4789155  58.3824528  85.8467570  47.8218228  38.6496757
  85.6973592  48.7524732  38.4829364  86.2634873  47.4992139  37.8506193
  36.3686443  62.6362183   4.1917152  35.9240251  61.7892980   4.1560569
  36.2319873  63.0152179   3.3234319  15.3577395  60.0165617  55.2037476
  15.7815245  59.2382475  54.8419949  15.9215311  60.2800697  55.9310264
  36.7786918  61.8585712  76.1961701  37.6659468  61.5003750  76.1696035
  36.3990961  61.6210988  75.3501525  29.7242777  32.9308211  76.8999297
  29.8509406  32.7828454  77.8371018  30.0032875  33.8357734  76.7604783
  54.0309802   5.7223829  68.2396685  53.6463848   6.4851992  67.8078937
  54.8945169   6.0195343  68.5264389  40.9450768  58.3734003   9.1779998
  41.1447534  58.7651057   8.3277481  40.1888446  57.8108872   9.0108956
  19.1330387  60.8936633  70.2364290  18.8779334  61.8051605  70.3789984
  18.3064031  60.4335743  70.0907459  30.7688081  25.6868897   5.5850502
  30.3151658  26.5040529   5.7916532  31.2654254  25.8828926   4.7905780
   7.8818076  60.4250093  64.9445458   7.5040228  61.0195860  65.5926114
   8.4595393  59.8542627  65.4512077  27.8891079  45.1573092   9.9797918
  26.9934828  45.0583255   9.6568526  28.4401884  44.9430795   9.2270317
  86.1975617  12.0252314  23.7540317  86.0687021  11.1343482  24.0795376
  85.5914134  12.5582363  24.2685429  41.6208436  17.7276358  82.7300296
  40.9997776  17.6075303  82.0116401  42.0113879  18.5863783  82.5679548
  80.2287433  57.7231972  52.6640949  80.7706266  57.0389640  52.2711328
  79.8186809  57.3002263  53.4185327  30.6971299   8.7378852  84.5034773
  30.5343061   8.9074747  83.5755982  29.9100450   9.0547226  84.9465837
  85.7375745  10.2763730  28.2842209  85.7252891   9.4909041  28.8311391
  84.8410249  10.6094076  28.3231907  30.7208416  54.3280367  76.8997413
  31.0299013  54.9753898  76.2659844  29.9169932  54.7064045  77.2559680
  70.6527724   2.4572788  28.5551729  71.4908712   2.0400279  28.7544819
  70.8894004   3.2605232  28.0914516  69.1972333  52.5772331  73.3859514
  70.1107665  52.3287131  73.2447894  68.9437676  52.1144050  74.1845609
  26.4981832  37.4078638   2.3841274  25.7015060  37.8823121   2.6216901
  26.2463363  36.8817865   1.6251494  86.1054004   1.8343618  21.7861912
  85.5810752   2.5690711  21.4675738  85.4745132   1.1248467  21.9078525
   2.8429650  17.7646250  57.1253497   2.0181546  17.5501927  56.6895306
   2.7488008  18.6831565  57.3776687  45.8838707  59.0531211   8.3618996
  46.4146398  58.4533696   8.8861268  46.0107952  59.9077719   8.7738391
  35.4324709  19.5848985  85.7391805  36.3478326  19.3052160  85.7502530
  35.3397601  20.1320622  86.5190833  50.0815602  68.6748829  34.4496754
  51.0008376  68.4297558  34.3444437  50.0208863  68.9964551  35.3491985
  49.1846713   3.8615795  29.9115423  49.6015564   4.2349917  30.6880743
  49.4033159   4.4705060  29.2061099   7.9861048  32.6915771  88.6356951
   8.0143463  33.0040504  87.7313750   8.7385895  32.1046432  88.7099064
  24.4307759  19.2650971   1.6372879  24.7244428  19.6993705   2.4381613
  23.6404654  18.7918491   1.8974368  62.1449430   1.7163379  82.9151471
  62.8701157   2.2612035  83.2208886  61.9261895   2.0704028  82.0531628
  23.5367131   1.9521837  26.7006892  22.9291939   1.2127656  26.6803611
  23.2678706   2.5033310  25.9657115  73.2735916  47.0287746   0.9812536
  73.9751415  47.1168310   0.3360359  72.4725839  47.2134777   0.4908424
  79.1085887  43.1422265   4.0538108  79.1169719  43.6544081   4.8624093
  79.8526751  43.4748441   3.5518818  11.3673041  16.1664277  29.9483548
  10.5778905  15.9337359  30.4371415  11.0631661  16.7814334  29.2808969
  67.6100161  18.0415905  24.9257733  66.7229491  18.4001553  24.9536168
  67.6391787  17.5374990  24.1125863  73.6140973  17.9707696  53.9658942
  74.5579117  17.8155193  54.0025486  73.4915150  18.5193485  53.1911255
  16.4036389  43.5354568  81.3055284  16.6457122  42.6699716  81.6350246
  15.4485990  43.5106554  81.2462374  76.5148715  30.9023660  18.0769223
  76.4888665  31.8193977  17.8037768  76.5875904  30.4107523  17.2588393
  61.4273418  49.4498004  60.1811388  62.1015764  49.7758154  59.5850232
  61.5060457  50.0038149  60.9577375  73.0785805  16.3040528   3.4188939
  72.7239659  16.5639848   2.5686494  73.7784249  15.6861042   3.2077323
  37.7510193  55.1692781  52.6444237  38.0067620  54.4274034  53.1925564
  37.3889530  54.7693069  51.8537513  30.0570644  47.6650391  26.7739821
  30.4679188  46.8495447  26.4869293  29.1805839  47.6397194  26.3900906
  50.4940246  38.6874118  84.2054073  49.5764917  38.4223812  84.1411891
  50.7327566  38.9419311  83.3140831  44.2789493  66.4437842   7.3661511
  43.6716530  65.7365798   7.1487002  43.7249427  67.2208059   7.4406212
  49.7382755   0.9166043   6.9514694  49.1488397   0.7791541   7.6930251
  50.3287748   0.1635325   6.9720894   8.1060847   8.0221023  74.2780058
   7.5213314   7.7958372  73.5547496   8.6768977   8.7023395  73.9206802
  69.8993036  26.5054165  70.8334146  70.1878304  26.1682946  71.6815496
  70.7069172  26.7726770  70.3945936  84.8670461   1.5241021  44.3237864
  83.9221146   1.3899813  44.2506559  85.0554952   2.2379468  43.7145701
  26.4127914  70.6328465  47.6538408  27.1310310  71.2654553  47.6668775
  25.7020415  71.0676901  48.1249857  81.9726266  30.7630653  73.3158141
  81.9480618  29.8069550  73.3543034  82.8216416  30.9652114  72.9226952
  43.7868498   3.4724189  49.2842385  43.3196018   2.9068995  48.6693410
  43.3448356   4.3186007  49.2147289  48.4668456  62.3063075  13.7304703
  48.0358345  61.4645557  13.8785080  48.3934001  62.7635990  14.5681588
  71.1737796   2.3783075  71.8716309  70.8326432   2.2559184  70.9856971
  72.1006275   2.5814446  71.7454559  54.3765617  32.4596703  11.7496081
  55.0848315  31.8165165  11.7189658  53.6906311  32.0361661  12.2657236
  58.2490135  67.7795555   9.1689742  59.0828106  67.7941638   9.6388687
  57.6355630  67.3747373   9.7821891  20.4964668  12.3515123  21.2631261
  21.4144448  12.6152868  21.2001072  20.3113102  11.9266408  20.4256100
  60.3688629  55.5487004  32.8895681  59.4229883  55.5181764  32.7459667
  60.5715429  54.7216951  33.3268493  81.2260976  36.9769795  72.1969808
  80.3156198  37.1049990  72.4632006  81.5123340  37.8405675  71.8994639
  63.1101490  54.3815780  80.2315069  62.6298984  54.1712648  79.4306576
  63.9121903  54.8051062  79.9255895  17.0689122  58.7645271  26.7521669
  16.3995960  58.1236771  26.9920812  17.6976919  58.7355302  27.4732959
  46.2844998  46.3028314   9.8425582  45.9704232  45.6089645  10.4223309
  46.8866853  46.8131170  10.3840498  50.5679837  17.0957701  40.2052435
  51.3591315  17.3049867  39.7087101  49.8963401  16.9556871  39.5377830
   0.2300446  54.9044752   9.1654957  -0.0747030  55.3307511   9.9665260
   0.6744192  54.1130590   9.4695080  64.3314599  20.1819203  70.8465854
  64.9923178  20.5869342  70.2849250  63.5554224  20.7316735  70.7380996
  52.4107209  31.8217121  13.5833632  51.8542677  32.5942309  13.6823903
  53.1579964  31.9896166  14.1574879  36.1181634  17.2948691   6.7886227
  35.9747830  17.3500778   5.8438339  35.2384608  17.3094982   7.1656387
  18.0729240  13.0079134  86.3185538  17.2300037  12.5760999  86.4573136
  18.0593633  13.2694582  85.3978788   2.5853011  36.1316877  32.0494273
   2.2564651  35.8183746  31.2068518   1.8016690  36.4080419  32.5245914
   7.8745029  48.1622355   8.9138335   7.7983222  47.8048844   9.7985530
   7.3242128  47.5919730   8.3769785  61.3172167  59.7606575  61.4430645
  61.9837127  59.6352314  60.7675771  61.5320625  60.6059360  61.8374975
  68.3404079   3.0107810   0.6578725  69.1621424   3.4967970   0.7269566
  67.6942965   3.6681698   0.3997799  25.7705753  61.5768705  25.9361667
  26.3520008  61.6632086  25.1807053  26.2340513  60.9849856  26.5286987
  12.6801635   2.9404468  68.9322445  12.6285084   2.8364282  67.9821162
  11.7714321   2.8891186  69.2285627   1.0974935  20.5073045  64.3953244
   1.5173694  20.1576049  65.1812291   1.6787606  21.2106256  64.1060151
  34.9179780  68.4453875  79.8398666  35.7233698  68.0659656  79.4882775
  34.5724219  68.9791321  79.1243671  78.8763273  25.7557588  38.8991782
  79.4897166  26.3082955  38.4147315  78.5535253  25.1303622  38.2504026
  79.9623172  33.8656904   9.3780325  80.2546741  33.3244519  10.1113947
  79.9196385  33.2617043   8.6366748  27.8933952  32.3413175  18.7585319
  28.5135332  33.0704152  18.7497372  28.4240230  31.5783082  18.9876230
  13.3465767  47.5059045  58.1216058  13.2324015  46.9735588  57.3343295
  13.2828129  46.8814844  58.8442851  54.7367117  50.4948130  55.2631128
  54.0104671  50.9118184  54.7995321  55.0526733  51.1667916  55.8671368
  81.3928308  18.4864859   8.7451438  81.4585397  18.6221722   9.6903969
  80.6909340  17.8436195   8.6436772  20.6854348  46.3217934  63.1706842
  21.1381719  45.6916333  62.6101852  21.1802569  46.3123576  63.9900095
  38.7873195  40.0932907  23.0193332  38.6985196  39.3684403  22.4005131
  38.8875624  39.6695602  23.8717625   2.6931277   4.6487565  33.0247307
   3.3056678   4.4922872  33.7434405   3.2323389   4.5992528  32.2354066
  54.9815621  61.2703829   8.7665345  54.8215919  62.2140589   8.7773536
  55.7700064  61.1550138   9.2968904  77.5781399  66.0400244  86.8660828
  76.6813173  65.7895285  86.6442880  78.0585558  65.9653316  86.0415506
  65.5533374   8.5873862  20.4162434  66.5038085   8.5470813  20.5221301
  65.3134970   7.7254855  20.0758972   7.7379912  34.2122702  72.9066403
   7.6130326  34.9327418  73.5243278   8.0146329  34.6378143  72.0950902
  30.1825748  65.1880085  78.1451613  30.5866803  64.7044950  78.8656786
  30.4767145  64.7325170  77.3563386  72.5822189  20.0798717  77.9043119
  72.8123449  19.2147387  77.5654628  71.6481561  20.0181287  78.1041777
  52.7969166  11.7289638  15.2984765  52.4109922  12.5653887  15.0383083
  52.0671384  11.2339622  15.6708057   1.8236873  59.8582220  16.0658058
   2.6890976  60.0985590  15.7348452   1.7027006  60.4070107  16.8406767
  59.1930559   7.2373563   7.9449767  58.9036633   6.4029001   7.5759690
  58.6702868   7.8957714   7.4873374  46.5658660   0.8596271  65.5278388
  46.5701063   0.3383838  64.7250192  47.2044918   1.5540168  65.3659377
  12.6616506  45.3916189   5.9730785  13.5301816  45.7626957   5.8175543
  12.0867122  46.1527787   6.0525355  35.4796736  70.1860895  72.9934500
  35.6804396  70.3055916  73.9216979  34.9919076  70.9730855  72.7506468
  37.5942125  56.8683642  79.0100961  37.1923591  56.6342712  78.1734682
  37.5281828  56.0729073  79.5384144  55.2797384  19.5092291   3.8787187
  55.2471498  18.9583024   3.0966383  54.6052461  19.1484158   4.4541366
  38.6124781  18.2971004  74.7059129  38.7171026  18.4743237  73.7710988
  38.0124139  17.5522550  74.7427922  36.2395035  13.4721308  15.4500147
  36.0033688  14.1224454  14.7885291  35.5489088  13.5395283  16.1093844
   2.7996380  54.6174121  12.0684052   2.9074197  55.5272418  12.3455783
   2.9862701  54.6293057  11.1296513  40.7426339  70.3546311   7.8630320
  41.5208365  69.8424123   7.6433401  41.0158302  71.2651892   7.7513197
  20.5400114  41.9705892  79.0129473  19.7139279  42.1924208  78.5832861
  20.7753694  42.7594697  79.5013180  85.0827762  21.3402928  84.5532368
  84.6878369  21.2722749  85.4225057  85.9408331  21.7344226  84.7101821
  15.2215889  69.6787526  39.6796744  14.5327895  69.9806116  39.0875019
  16.0328161  70.0029943  39.2885099  50.4774479  59.0752280  30.5163129
  50.2445767  59.9990886  30.6084229  51.0481322  59.0474892  29.7483404
  17.1823690  32.6114454   1.7241518  16.5589789  33.3193593   1.5614421
  17.0104436  32.3436881   2.6269140  65.4489410   0.8663422  61.6398133
  65.4644068   1.7445163  62.0203432  64.7788922   0.9126022  60.9578114
  26.9102610  68.0191357  29.7653259  26.9828321  68.5189352  30.5784469
  27.5999556  67.3583575  29.8279785   1.4433307  40.1317690   7.5260922
   1.2890178  39.4063526   8.1312288   0.5675898  40.4134270   7.2615578
  19.9382378  56.3575175  16.6756902  19.1380739  56.8181596  16.9282340
  19.6859947  55.4344459  16.6523642  70.3031259  44.1047910  22.0278800
  69.4072284  43.7682048  22.0102907  70.4227117  44.5124472  21.1701228
  24.2236166   6.5452980  27.6016494  24.6382463   5.6953638  27.7497231
  23.6051797   6.6395593  28.3261372  64.2476776  61.6759275  65.8405781
  65.2013418  61.6131791  65.7874842  64.0806265  62.5872534  66.0810169
  60.9097157  39.6021855  24.4460449  60.2381632  40.0942176  24.9184363
  60.6080727  38.6943026  24.4775396  21.3007358  45.4868644  25.2515403
  21.4053518  46.1043831  25.9753897  20.5011356  45.7705433  24.8083725
  41.5807691  23.2272219  65.4340380  40.9603127  23.6376779  66.0363599
  41.1083511  23.1736663  64.6032643  46.6171180  26.5574398  88.2440316
  46.1399441  26.7064756  87.4277441  47.3198838  25.9535753  88.0038242
  77.3134718  25.6077562  58.3355464  76.8132312  26.1673024  57.7414932
  76.6488228  25.1171335  58.8190367   2.2433744   5.8619928  15.3650867
   1.9338652   6.6957322  15.7190849   1.5583939   5.2346007  15.5961984
  31.6270179  25.4629258  68.8366887  32.4486429  25.9281772  68.9938681
  30.9558287  26.0244216  69.2245797  52.2812287  27.3133845  46.1716603
  51.7850365  27.8580296  45.5606065  51.6283816  26.9998901  46.7975546
  24.5877089  12.0664364  87.8881087  25.1834968  12.3198492  87.1830905
  24.6204704  11.1098399  87.8971379  27.9036204  57.5098719  16.6023666
  27.0340082  57.8583953  16.4060559  28.3567688  58.2298634  17.0411155
   2.9578670  32.7298457  69.8273856   2.7282491  33.1916768  69.0210237
   3.4141012  31.9423787  69.5307748  18.1150824  10.6438548  88.6492563
  18.1186649  11.1955712  87.8670620  18.3698008  11.2331924  89.3592082
   8.2799419  34.5800203   9.7511051   8.9944330  33.9658661   9.5821408
   7.5779443  34.0376959  10.1107096  46.0231740  45.2856559  13.9744482
  46.2257459  44.6704956  13.2696261  46.4532665  44.9163037  14.7457012
  42.5703439  56.0017443  70.0179500  43.1913325  56.1581590  70.7293848
  43.0939239  55.5934869  69.3284416  18.4648838   4.1572781  76.9152467
  18.6707204   4.5239975  76.0553746  17.5387240   4.3602017  77.0467071
  42.2603774  26.2267805  46.4401282  42.6549360  27.0724809  46.2271819
  42.2168000  26.2167804  47.3962834  19.6676591  48.2849293  26.0872921
  18.9331628  48.3817146  25.4811736  19.4178677  48.8047555  26.8512402
  71.8014030  56.9685996  85.7316151  71.8095730  56.2397120  85.1112217
  70.9372541  56.9250176  86.1409794  47.3473543  57.5779029  33.4040548
  47.4503591  56.7100556  33.0135896  48.1333623  57.6953261  33.9375667
  83.8936274  58.0910932  61.1308433  83.2118186  57.4455593  61.3170005
  84.3430769  58.2127128  61.9671660  10.3010266  49.0166091  32.0867693
  10.6931037  49.8460703  32.3597189  10.8491315  48.3466604  32.4954032
  66.4081114   9.4466608  73.7816516  66.2806433   9.2718326  72.8492253
  65.8728154   8.7879970  74.2242033  15.7250273   6.3300792  27.6869195
  16.1908279   5.8258903  27.0197950  15.8339584   7.2420648  27.4173862
  67.1011139  49.6553875  66.9867000  66.7985643  48.8717813  66.5277263
  67.0790458  49.4140888  67.9127236  58.6003319  35.4538113  67.3416706
  59.2510727  36.0739824  67.0127996  59.1071092  34.6758893  67.5745782
  23.2127369  27.6169680  10.4802479  22.4788983  27.9677963   9.9756370
  22.8014819  27.1411090  11.2018152  70.3601570  62.7342975  73.7101411
  69.7633984  63.0441218  73.0288777  69.7892435  62.3265932  74.3613452
  76.1366498  41.0733867  35.7641915  76.4298451  40.7166552  36.6026490
  75.4001597  40.5166729  35.5114386  67.9742360   9.3037835  46.1070990
  67.6073486   8.6140376  45.5540384  68.0693028  10.0550554  45.5216209
  78.1468935  62.7360599  86.0852112  78.0935341  61.9318131  85.5689054
  77.8925172  63.4291234  85.4759596  51.2859599   0.8038743  34.3722630
  51.4142432   0.2610646  35.1501659  50.9034622   0.2100584  33.7262677
  23.0739888  34.0267676  79.5267998  22.4526147  33.3869964  79.8743899
  22.5428773  34.6014505  78.9755357  22.4283748  70.1502938  77.8052145
  21.6870326  69.8158205  78.3099630  22.0294052  70.6894086  77.1222721
  59.9473362  63.9994215  50.3932123  60.5180495  64.4956592  49.8064702
  60.4082158  63.1721339  50.5325572  78.5367375   3.7731320  13.1839289
  79.4222007   3.4178971  13.1065019  78.1075894   3.2086629  13.8269206
  55.9295605   4.6788306  34.2364195  56.5995160   4.0153108  34.4011405
  55.1000145   4.2146245  34.3486601   5.2320505  32.0254925  16.3293940
   5.9369093  32.4751748  16.7954324   4.4803465  32.0826397  16.9192305
  82.0541006   8.6811415  69.4367447  81.2668661   8.9539559  69.9079834
  82.7114675   8.5555913  70.1210966  81.6888622  23.6375549  81.3676038
  81.4142932  23.1297031  82.1311025  81.6853154  24.5456898  81.6701104
  36.5533112  43.5575958  18.7585514  37.1598289  44.2660186  18.9742021
  35.8734938  43.9766423  18.2308393  34.9008300   2.2586717  66.0903282
  34.2858034   1.6519712  65.6781527  34.9940433   2.9714552  65.4582816
  27.2825449  22.3192304   1.3396030  27.5628577  23.2319857   1.4069407
  28.0024506  21.8804038   0.8863933  61.7050984  62.7238646  16.9382001
  61.8166189  63.6025897  16.5753817  62.5737372  62.4868464  17.2630398
  64.3891193  51.6169342  14.7347871  64.2167875  51.7764013  13.8068303
  63.7108926  50.9962076  15.0011306  81.3829445  65.2187450  26.1728345
  82.0603472  65.2515910  25.4973506  80.8307953  65.9802783  25.9955492
  42.8332254   0.7195855  56.8182076  42.1398080   1.2110900  56.3779491
  42.8732954  -0.1125466  56.3468454  68.2897809  71.1277203  23.9557623
  67.3609078  71.2147005  23.7416107  68.3089295  71.0435177  24.9090592
  16.7125206   7.0930040   8.0328632  17.0216010   7.6724046   7.3364466
  16.1484038   7.6468832   8.5725131  35.2771978  56.8606878  65.9863859
  35.4180391  56.1782305  66.6426233  35.3591047  57.6811005  66.4726432
   2.2044958  56.7447541  49.6571041   1.5895731  56.3452956  49.0418522
   1.8252542  56.5744859  50.5193201  20.2799005  32.6747092   1.0568704
  19.6779928  32.2796050   0.4261315  19.8794625  33.5162256   1.2753455
  67.5008479  46.9126182   5.5109135  66.5895071  47.1099219   5.7271564
  67.6546742  46.0468061   5.8889858   2.8325259  14.2791337  11.9328136
   2.6168660  14.7591857  12.7323589   3.1889755  14.9436480  11.3432407
  64.0381565  40.9876022  39.4636168  64.9282223  41.1411132  39.1466798
  63.8939504  41.6743460  40.1146309  28.4314358  23.0264889  73.1889928
  28.5737481  22.6629286  74.0629510  29.2026537  23.5698614  73.0271249
  65.0660383  18.0114717  14.3769407  64.8974988  18.7369339  13.7756664
  65.5396788  18.4104272  15.1068250  59.2362436  40.6328352  88.8085137
  58.7965424  41.0900889  88.0917057  59.6320154  39.8651599  88.3958745
  85.9392091  67.8599425  61.5722317  86.2470949  67.3204636  60.8439456
  86.3329803  68.7185608  61.4174720  65.8806924   2.1944806  15.1229969
  66.8144873   2.3696531  15.2395022  65.7947863   1.2513080  15.2618398
  41.8032370  65.8244092   3.7548693  40.9960441  65.6936733   4.2524431
  42.1549018  66.6523337   4.0821377  20.8026511  69.5413911   7.8356087
  20.0220195  68.9933962   7.7546912  20.6228333  70.2982613   7.2778947
  46.6723870  62.0243320   7.0852591  47.4959974  61.6424981   7.3887399
  46.9180634  62.5491326   6.3233803  16.8570584  25.5794066   6.4419057
  17.1059483  24.8838818   5.8331932  15.9198019  25.7041205   6.2928130
  60.5529348  49.4774047  17.6852576  59.6247022  49.3270002  17.8641275
  60.5737038  49.8035768  16.7855842  38.6697632  33.8585817  12.1610635
  38.9931064  34.6165156  12.6481129  39.4577292  33.3623955  11.9393863
  22.0131266  23.2644130  31.5303454  21.1644027  22.9971792  31.1775202
  21.9439584  24.2141908  31.6271430  45.6114150   1.6589625  70.5027542
  44.6976181   1.8251310  70.7342605  45.9131212   1.0279722  71.1562498
  54.9215742  23.2420655  63.3093390  55.3934439  22.8219188  62.5902788
  54.8715102  24.1639542  63.0566598  73.5111799  34.4086975  20.1296411
  73.4573209  33.7972040  19.3951979  73.9371427  33.9093097  20.8263472
   7.3613616  45.5161310  77.0103865   6.8578479  46.2534416  76.6653084
   7.1953679  44.8031793  76.3936388  75.3493664  17.0487772  85.8446411
  74.6446365  17.6528510  85.6107980  75.6877113  16.7387891  85.0046042
  42.3347374  50.1089556  51.3250893  41.4384929  49.8889788  51.0709477
  42.7115578  49.2788246  51.6168439  73.6087358  64.5330164  43.0998704
  73.3251556  64.0109816  42.3493414  73.0089270  64.2860316  43.8037595
  36.1226472  50.1789852   4.4865028  36.3604439  49.4482993   5.0572766
  36.1969921  49.8247458   3.6003769  41.7088815  38.8676350   0.2962365
  42.4165695  39.5008898   0.4162281  42.1383388  38.0954014  -0.0718037
  25.2791021  36.4011433  22.4841759  24.6892104  35.8718454  23.0209284
  26.1069815  35.9207617  22.4931812  73.5190234  50.3781599   9.4122879
  73.8931140  51.1912888   9.0730101  73.8118467  50.3414290  10.3228576
  28.1696454  48.2954056  68.1306920  28.3474904  48.1612615  67.1997740
  28.9306134  48.7785813  68.4527180  15.9274473  68.6829072  11.0095046
  16.8206656  68.3437591  10.9514412  15.7649114  69.0775110  10.1527072
  51.9347240  54.8498199  26.8414725  52.1867390  55.7050462  27.1897658
  51.0196613  54.9571110  26.5818946  85.1830839   1.2582050   7.5819474
  84.6010220   0.9740682   8.2867183  85.1788693   2.2137296   7.6383996
  72.4774746  39.5983922   8.1511708  73.0077665  39.3340890   7.3993955
  72.7675544  39.0264893   8.8618132  40.9746894  40.9666984   8.0083200
  40.5157934  40.1906319   8.3298274  40.7879262  41.6425070   8.6599596
  43.8478717  35.3607266  53.8171812  43.5687566  34.9922882  52.9789809
  44.7944737  35.4706189  53.7271803  48.3718735   4.3349387  66.6422963
  48.3465741   3.8021558  65.8474793  47.8726273   3.8306302  67.2846810
  62.2484794  19.4474285  32.5793217  61.8759795  20.3218990  32.6923568
  63.1356890  19.6049268  32.2563894  63.3325009  57.1849340  69.3901151
  62.6589363  56.5098274  69.4724172  63.0527766  57.7124013  68.6419410
  40.2820572   3.1680119  70.2166305  40.2043351   3.9694106  70.7342705
  39.3869378   2.8344020  70.1558225  44.2419773  47.0663687  23.3555578
  45.0896155  47.0858312  22.9113028  43.7684332  47.8189108  23.0010607
  51.1979962  33.1760022  82.2529936  52.0640707  32.7687641  82.2355631
  51.3728363  34.1140432  82.1772181  82.4664096  34.8505031  85.2836629
  82.5076213  35.4193870  84.5149597  83.3694731  34.5626726  85.4173105
  75.5707882  16.5791618  76.9371868  75.2945778  17.4927062  77.0105101
  76.4752660  16.6265301  76.6274966  42.1496421  24.4448940  10.8826599
  42.7574018  24.8370178  11.5096359  41.3886944  25.0255078  10.8914963
  47.7066256  26.0446199  25.9090063  48.0090636  25.2582585  25.4546949
  48.3504448  26.7153449  25.6812856  48.1339665  57.8778629  75.3834907
  48.7533529  57.6925000  76.0893469  47.8328803  57.0157631  75.0965014
  33.2695175  54.2122910  66.0574961  32.3537379  54.3266577  66.3114642
  33.3296216  54.6138501  65.1906803  15.0962464  13.7948506  10.0221571
  15.0240026  14.7478789   9.9697185  15.7323776  13.6409449  10.7206426
  43.8958794  66.5080911  88.8841626  44.8275729  66.4336281  88.6776820
  43.7140365  67.4465996  88.8355124  64.7946641   2.8625561   0.9562086
  64.6198211   2.0441097   1.4207592  65.1770488   2.5879329   0.1227844
  56.6286334  18.0043572  32.9031802  57.1222260  18.7683383  32.6049671
  56.9519306  17.2841175  32.3619173  15.9778994  11.3865885  17.0565745
  16.7178330  11.7049171  16.5394701  15.5286563  12.1807305  17.3459721
  68.5626383  42.0183665  80.5293964  68.2031620  42.5550256  79.8229932
  68.8543281  42.6508383  81.1860000  46.5966530  47.6138982  14.7858675
  46.4027623  46.7510114  14.4197192  45.9051553  47.7611600  15.4311401
  33.2736256  14.6913649  83.8749195  32.7701585  14.2848115  83.1696060
  32.7919777  15.4921706  84.0821810  18.5652321  58.6414725  24.5223114
  18.2865567  58.3330820  25.3845568  17.7569534  58.9298366  24.0983261
  11.5950982  66.2062967  80.7755794  10.9191724  66.6956372  81.2445166
  11.2768487  66.1622647  79.8739085  65.0694088  19.4476115  67.0868165
  65.0008503  18.9262131  66.2870195  64.2230943  19.8890696  67.1582186
  74.0690080  47.9649914  53.5559363  74.7438891  48.2785619  54.1579669
  73.2773051  48.4349185  53.8178657  53.9649211  10.8484623   1.8255580
  54.2935369  11.7339002   1.6698557  53.4689252  10.6346547   1.0353009
  33.5493611  60.0105318  59.6511723  34.3336428  59.9972225  59.1025769
  33.7679735  60.6070505  60.3671373  27.8413773  27.3856983  80.6640521
  27.3301605  27.5187592  81.4622902  28.6641245  27.0021356  80.9676943
  25.6888067  69.0351421  38.8489038  26.0069236  68.6319464  39.6566580
  26.4258642  69.5601187  38.5368500  58.3020359  33.8445336  34.5099913
  57.3686415  33.9832653  34.3494911  58.3730921  33.7711263  35.4617235
  32.6173716  26.9911416   1.4517275  32.0104741  27.3843548   2.0788564
  32.6117392  27.5901367   0.7051319  81.2252166  50.1519880  43.1124064
  81.4214913  49.2987022  42.7256100  82.0253001  50.6620065  42.9859968
  32.4688008  46.8997533  66.0138138  32.9567485  46.9040448  66.8372946
  32.1774574  47.8048187  65.9033262  67.6791241  16.6301460  29.5385140
  67.6899907  16.2120183  28.6775361  67.5139473  17.5546972  29.3537071
  67.9552121  62.2675998  38.5858895  68.2551733  61.3657049  38.6992066
  67.1572128  62.3224500  39.1116466  68.4415163  69.7204315  48.6049422
  69.3298539  69.5563983  48.2884281  67.9480393  68.9415533  48.3479186
  26.5012833  43.5938732  28.0377124  25.9421920  43.0195679  27.5144322
  26.0097262  44.4126644  28.1024001   3.0617315  20.3456790  26.0780518
   3.9336056  20.0695617  25.7955158   2.7061672  20.8213737  25.3273718
   5.8484498   3.4916507  52.0806651   6.3819516   3.8008097  51.3485255
   4.9504536   3.7106488  51.8319193  54.5875762  27.5046539  47.6183357
  54.0486957  27.4903844  46.8273641  54.5458046  26.6087642  47.9528034
  17.5817342  46.9676049  60.8823475  17.8902194  47.8601411  61.0387057
  17.8613463  46.7707185  59.9883203  50.7482856  30.6080872  62.2119345
  51.6371423  30.4813462  62.5437510  50.8613442  30.7488410  61.2719143
  71.3857184  63.7299760  29.9289703  70.4412463  63.6537723  30.0646072
  71.7423391  62.9050763  30.2585062  73.5903572  18.2843177  48.2095498
  73.8463984  17.9499356  49.0691214  73.4487185  17.4997449  47.6798180
  75.3829894  52.1124369   8.6311696  76.2558665  52.2344713   8.2577730
  74.8904575  52.8817710   8.3452165   6.3909340  19.6057376  54.0958377
   7.2206983  19.2357692  53.7944304   5.8696212  18.8456829  54.3542593
  59.9621369  10.8108163  87.4549190  59.9731465   9.9453945  87.0460720
  59.8788308  10.6321565  88.3916007  71.2289536  15.3129527  29.4815586
  71.9909189  15.8752427  29.3420209  70.9927246  15.0079511  28.6055439
  82.5824348  50.7355085  62.8176291  83.2982763  50.7750479  63.4518526
  82.3297614  51.6490910  62.6843812   4.8239161  33.9582487  34.5866238
   4.0148542  33.6700386  34.1640299   4.8004919  33.5502807  35.4522133
  16.8816830  52.8576672  32.2958378  16.3625175  53.1588549  33.0414818
  17.2619178  52.0291587  32.5877743  38.1066351  51.6762360   5.7404805
  38.9366243  51.8976413   5.3181897  37.5676468  51.3170480   5.0357058
  46.9298496  65.0502364  84.5069402  47.8337022  65.1191305  84.8144071
  46.7857137  64.1105272  84.3955700  32.4640290  48.6094911   2.1263104
  32.4094293  49.0742690   1.2913060  32.0007491  47.7860553   1.9728271
  73.7074400  32.8807763  10.4298495  74.3529801  33.2085869   9.8037105
  74.2035535  32.7469878  11.2374409  36.5815025  16.8839782  18.8279191
  35.8780929  17.4763780  18.5623834  37.3759759  17.4148363  18.7710557
  39.4096211  54.1827873  86.3802477  39.2308524  54.0146780  87.3054573
  39.9639608  54.9631322  86.3813514  65.2298955  11.4397392  76.5268383
  65.9771293  11.4448492  75.9286348  65.4093927  10.7169227  77.1281277
  65.0818478  11.4327476  14.3284908  65.0380355  10.9348576  13.5121466
  64.1698224  11.5179629  14.6063034   1.9982406  36.9233140  89.2153050
   1.8611171  37.3560946  88.3726129   1.5085490  37.4569744  89.8411169
  68.6980408  33.2011573  88.9727082  69.4046294  33.8468784  88.9756441
  69.0520491  32.4565225  89.4589479  52.2758185  29.2128184  66.5268470
  52.1419782  28.9242288  67.4296397  53.1029250  29.6940872  66.5493647
  39.0228431  54.0362933  45.8641559  39.4858311  53.7338696  45.0828660
  39.4520008  54.8607898  46.0927627  31.1095919  60.0498730  50.1184015
  30.8391491  60.4203287  49.2782497  32.0330228  60.2885504  50.1992736
   4.1204616  67.1574884  73.0161166   3.9283125  66.8287347  73.8943145
   5.0761556  67.1533252  72.9626053  72.9956353  16.8057239  11.8991731
  72.4316264  16.3876728  11.2485125  73.4021460  16.0766377  12.3675898
  39.4266705  48.1044127  24.1394492  39.4337099  47.8933595  25.0730652
  39.4978019  47.2562006  23.7016040  81.3914095  51.7353271  75.1687362
  80.7807464  52.4396486  75.3861158  82.1007927  52.1707544  74.6960732
  74.1114479  12.7739070  43.4713641  74.7109677  13.4605328  43.1792121
  74.3661671  12.0023219  42.9653933  20.5462891  44.5081683  66.0534216
  20.5941096  43.5959466  65.7674206  19.6125037  44.6674180  66.1909577
  32.8190450  69.8698609  83.9560975  31.9283917  69.5229042  83.9052102
  33.3404236  69.1424417  84.2955936  12.3778868  53.1782282  78.5108410
  12.6502457  52.7212505  79.3065946  11.7355086  52.5944606  78.1073593
  86.1243646  37.8136936  36.3709048  86.1205459  37.7855875  35.4141252
  86.9612738  37.4207555  36.6187244  73.1330943  48.2433724  46.6562316
  73.6837384  48.8601473  46.1739333  72.7888033  48.7527330  47.3898849
   9.8209626  34.9444170  23.7283878   9.7012923  35.8600662  23.4764006
   9.7848805  34.9525462  24.6848729  57.4722455  44.9469938  75.6334889
  56.6329615  44.4874751  75.6595048  57.3368214  45.6577749  75.0068452
  51.0941787  29.4261842  82.5851170  51.2783803  28.9349278  83.3857223
  50.5032892  30.1257110  82.8639425  27.1381853  53.7298070  14.2143586
  26.7437614  52.8601159  14.2799258  27.4941361  53.8977687  15.0868950
  68.5768462  54.5272518   1.9813458  69.3535090  54.5802520   2.5383176
  67.8752602  54.2569737   2.5737634  48.9082621  24.8766124  81.1512932
  49.3765508  25.7087977  81.0849217  49.0841141  24.4358640  80.3199998
  76.3081748  22.7044359  58.0396678  75.8790712  23.2629352  58.6878811
  75.6937151  22.6728942  57.3064037  58.9856697   3.4362586  15.4937476
  58.2934348   2.8229215  15.2470488  58.9134517   4.1475555  14.8572939
  30.0273683  31.3315180  83.7541550  29.4677075  31.9953168  84.1571226
  29.4615740  30.5649329  83.6621989  81.7709395  15.3709021  73.1920952
  82.4236722  16.0341831  73.4162161  81.5318124  15.5666926  72.2861614
  41.7302052  37.7828150  13.8416480  42.0192256  36.8894881  13.6554596
  40.9844806  37.6751407  14.4320147  79.3023443  33.4740496  36.4581216
  79.5360943  33.8629120  35.6152819  79.3343176  32.5299735  36.3034287
  39.5870165  58.1751331  63.1517353  38.6510294  58.3234933  63.2864546
  39.6279891  57.5261530  62.4493267  75.9443208  23.4551511  33.4983800
  75.1662470  22.9047768  33.4093789  76.1391060  23.7406791  32.6057635
  20.6261566  28.3861498  13.1642317  19.7695266  28.4016538  12.7374102
  21.1911191  28.8988138  12.5861099   9.8219492  57.5085163  49.3789346
   9.4892169  57.1916079  48.5392381   9.0680884  57.4648363  49.9671674
  29.5990906  49.9609360   1.3603821  28.9083136  50.6234916   1.3514926
  29.2374607  49.2448846   1.8826139  22.7341282  53.9752650  56.8349437
  22.0994378  54.6916597  56.8215773  22.6437786  53.5914736  57.7071667
  27.9925514   4.5098270  35.7526918  27.7193346   3.8451123  36.3849408
  28.2484849   4.0113730  34.9766289  37.4836222  45.1240678  31.6325963
  37.5737797  44.4752968  32.3305931  36.7668139  44.7946023  31.0904983
  56.9317577  13.3406293  66.9846242  56.7299195  13.4126297  66.0517206
  57.2704919  14.2033844  67.2236735  32.8654667  26.2378720  12.7240145
  32.3842409  25.4133646  12.7935926  33.7311998  26.0408232  13.0816592
  28.0997587  44.8088442  49.4594363  28.8813986  44.3736069  49.7997882
  28.3324939  45.7370802  49.4383618  14.9604379  44.4372810  15.6063978
  14.1436896  44.8900518  15.3962724  14.6989029  43.5288256  15.7565312
   9.3086605  57.9727717  84.5211417  10.1316919  58.3519295  84.2127742
   8.9436800  57.5349576  83.7521554  75.3134565  65.4961035  81.2920451
  75.6847864  64.6212032  81.4056030  74.5768934  65.3679467  80.6943139
  56.7022733  25.5284127  46.2718623  57.0231411  24.9904286  45.5480884
  56.1996863  26.2243935  45.8484843   2.2853104  44.6105450  28.8637089
   1.8378027  44.2309916  28.1074630   3.2093117  44.4032525  28.7241268
  69.9603298  42.3396521  13.0993242  70.6393436  42.8304374  13.5622517
  70.4371012  41.6537164  12.6319772  80.4789776  61.1857342  76.5900083
  80.7077868  60.9257094  75.6976714  81.0847817  60.6949222  77.1452891
  85.9215832  62.3855626  46.3401388  86.4108614  61.5776367  46.1849148
  86.2873177  63.0109979  45.7145985  58.5871123  38.9728435  85.7767196
  57.6574413  39.0097236  85.5518116  59.0142679  38.6603376  84.9791546
  62.6386833  49.3764726   2.9336289  62.9659753  48.5371049   3.2570074
  62.8203583  49.3584423   1.9940008  59.9662356  69.8443465  64.7532642
  60.2331704  70.2128648  65.5953877  59.4669164  69.0604809  64.9823207
  60.6234010  50.3480243  79.4643240  60.2942005  49.5353520  79.0803676
  59.8368351  50.8176791  79.7417593  77.0928071  65.5596128  61.7436475
  76.6620308  66.3927073  61.5522910  76.3735710  64.9526552  61.9183864
   7.0256538   1.8030153   7.3674225   7.1056966   1.9296045   6.4220124
   7.2259485   2.6609153   7.7417507  35.7737127  50.5935829  34.7450354
  36.4197139  49.8997513  34.6127022  36.2951511  51.3725326  34.9388686
  54.5179248  29.1317329   6.7372177  55.4476644  29.3572290   6.7683265
  54.3950127  28.5215007   7.4643636   7.4291167  10.9527493   7.9133795
   8.2282449  10.9018034   7.3889461   6.7845253  11.3524945   7.3294809
  18.3140188  55.7665245  56.0601522  17.8047405  55.1562941  55.5267796
  19.2007308  55.7139409  55.7034888  26.2436809  18.5479042  73.6015692
  25.6095087  19.2265277  73.8329297  27.0156915  19.0316323  73.3079052
  53.3621220   6.1022713  31.8871593  53.9909535   6.8214653  31.8274704
  53.7339870   5.5128079  32.5432699   3.8225117  49.0090191  15.7791815
   3.1693627  48.7593824  16.4328709   3.3101392  49.3572968  15.0495180
  55.3518053  19.5233435  25.5454835  55.7070131  20.4102537  25.4867505
  54.4503362  19.6456041  25.8432042  30.6145122  21.4681708  88.7345919
  30.3598566  20.5456642  88.7536676  30.9977537  21.6287282  89.5969023
  46.8514744  29.5141514  22.5093526  46.7475240  29.8777337  23.3886899
  46.5425986  28.6113535  22.5854018  52.6040870  44.6568411   0.2812653
  51.7382121  44.3528609   0.0090732  52.8009432  44.1467721   1.0669555
  24.4433140  54.5330211  87.7280055  23.8995839  55.3064207  87.5781975
  24.2996878  53.9860250  86.9557370  47.7167404  42.8869928  69.2010780
  47.1012711  42.9048329  69.9339566  47.4733423  42.1067675  68.7028435
  55.3561023  35.0807507  21.8385720  55.1224126  35.4092961  22.7067188
  55.5699390  34.1586779  21.9810060  13.1630156  58.3904326   4.6186819
  12.6367837  58.1922547   3.8440611  13.0567705  59.3332100   4.7456247
  11.7564970  69.1388236  75.2703638  11.3192076  68.7365140  76.0208015
  12.6190437  68.7245519  75.2453869  54.8803830  71.4548547  41.9467815
  55.6171615  72.0093214  42.2036004  55.2863323  70.6961810  41.5274353
  15.3583261  48.8527328  59.6450709  14.6320015  48.3670181  59.2542185
  16.0750491  48.7577676  59.0177579  30.8802388  52.8214082  33.0435682
  31.2924596  52.7620314  33.9054152  29.9878364  52.5043366  33.1825482
  12.2181120  34.4389594  36.3836545  11.7460013  35.0623611  35.8316458
  12.7287157  34.9862267  36.9803237   2.8680549  68.1025173  23.8105966
   3.0492555  68.2843101  24.7327406   3.0327339  67.1644946  23.7145436
  25.2239522  69.8009938  83.2024746  24.9109965  69.4644431  84.0421318
  25.3347190  69.0213963  82.6582410  37.2453542  37.7776421  32.9852940
  37.2032369  37.2125055  33.7567074  36.4611290  38.3232251  33.0449752
   2.0356079  19.1135051  37.4102174   1.8848131  19.9805399  37.7867057
   2.7710814  18.7597990  37.9104201  84.3075496   1.3776068   0.5863437
  84.1404127   0.4510237   0.7587992  84.7934948   1.3838940  -0.2383075
  85.8468933  42.5189097  76.4456018  85.8245940  43.2641134  77.0459401
  86.4833430  41.9180995  76.8331462   6.6582051   8.3821196  65.2526609
   6.6598851   7.9130319  66.0870384   5.9578345   9.0283555  65.3426170
  32.4343142  46.2649558  84.6434989  32.0693918  47.0898196  84.9639097
  32.8420434  46.4920267  83.8077791  18.6380759  36.6561322  31.0970249
  18.9078387  37.3710342  30.5205052  17.9742068  36.1820926  30.5962293
  55.6327716   1.6951234  74.5141966  54.7098225   1.4919350  74.3621727
  55.7770515   2.5178437  74.0467071  48.8228352  42.9473220  17.2246088
  48.4371275  43.0301095  16.3524806  49.5766120  43.5371034  17.2101036
  29.2717475   1.1204818  36.7678123  29.7401315   1.3374868  35.9617372
  28.5438789   1.7414634  36.7964632   8.5079387  63.2292846  14.9361859
   8.2221013  62.9724647  15.8128685   9.4467926  63.0430431  14.9262261
  50.1327579   4.3035636  80.3698290  50.2869820   3.8754009  81.2119237
  50.6326526   5.1182980  80.4202775  80.4735460   5.7373439   1.2114551
  79.9126779   6.0257121   1.9315264  81.0619946   6.4760360   1.0555901
   6.4021689  13.7693019  22.3816659   5.8967202  13.2735654  21.7374619
   5.7573143  14.0399662  23.0352218   0.4081710   8.4380167  21.8575001
   0.0084271   9.3030887  21.7675715   1.0878272   8.5560469  22.5211025
  18.2809280  45.1070628   7.4900651  19.0348551  45.6964873   7.4699486
  18.6144503  44.2796587   7.1430824  33.5163701   0.8254102   4.6257717
  33.3539226   1.4249145   5.3540829  33.9377582   0.0666895   5.0295128
  64.5868782  21.1511389  80.9258590  63.8464728  20.5890946  80.6975215
  64.8581669  20.8494504  81.7928182   2.0049084  31.6411809  72.4721918
   1.1159094  31.3952144  72.2164322   2.3673539  32.0695974  71.6967407
  70.5929506  70.5295304  22.7480124  69.7859136  70.8050582  23.1827623
  70.3472566  69.7408617  22.2644133  67.6756750   5.7325436  46.4213997
  67.9050036   4.8760298  46.7819885  68.5179046   6.1579670  46.2604770
  71.0577496  47.5299624  88.7420365  71.3875536  47.7492528  87.8706165
  70.7918932  48.3700616  89.1159157  57.3534672  35.2699729   1.2342909
  56.7370853  34.6479982   0.8476997  58.0868056  35.2939084   0.6195765
  50.3873370  47.7972730  59.3251702  51.3169278  47.6501515  59.1506763
  50.0980571  47.0004668  59.7697474  17.7623309  58.2103825  86.7439341
  18.2723455  59.0203916  86.7424580  17.4119683  58.1495698  87.6326295
  76.1739792  45.5723473  31.7424092  75.7645816  45.8922500  32.5463294
  75.5109478  45.7081855  31.0655272  40.5269542  36.6591466   9.9238449
  40.9710701  35.8415607  10.1486699  39.7382008  36.3827919   9.4572317
  40.0871021  14.1392670   7.3127443  39.3279830  14.6323631   7.6239136
  40.7187399  14.8102047   7.0536921  19.1430335  45.5817913  20.1026911
  19.3808353  46.5072397  20.1595006  19.6352088  45.1642037  20.8095263
  53.8965467   9.5935731   8.9994597  53.2480397  10.0395977   9.5441913
  54.7271714   9.7310970   9.4548514  74.4544572  34.1668110  68.9889637
  74.3688762  34.7223472  68.2141816  75.1636873  34.5660445  69.4927862
  57.3441320   7.5901247  41.5799765  57.3576923   7.9561410  40.6956236
  57.9848291   8.1106859  42.0644918  65.2397437  53.8325812  53.1440848
  65.6446983  54.5860771  53.5736049  65.3290376  54.0136888  52.2084254
  83.9304638  68.2290689  19.9662667  83.7502168  68.1249004  20.9005535
  84.8249119  68.5681383  19.9312467  84.8458705  15.3430720  54.2789005
  84.1454717  15.4340953  54.9249563  85.0283250  16.2390016  53.9956120
  52.9359347  42.7527548  51.0439775  53.3998417  42.3756130  50.2964575
  52.0231845  42.8012136  50.7597758  30.5878766  65.4528797   8.6735576
  30.1715456  65.1205222   7.8782974  30.5275232  64.7283912   9.2962177
  72.0581540  23.7282522  40.7022673  71.1961712  23.5908302  41.0951193
  72.1248838  23.0516920  40.0284385  51.1964519  49.9317304  79.5418406
  50.5823566  50.5730909  79.8992977  51.9630341  49.9904648  80.1120457
  63.6679305   9.8725822  28.5737478  63.1837018  10.6846653  28.7229972
  64.4817478  10.1525388  28.1547518  55.9173196  12.8356328  82.1443069
  55.6981622  13.2653803  81.3175549  55.7859579  13.5124911  82.8082638
  82.1004245  36.7235182  18.4260185  82.7700066  36.4841697  17.7852347
  82.3093976  36.1981667  19.1983966   2.1704969   5.4776893   1.8549722
   1.4056560   5.5623323   2.4242576   2.7598737   6.1758768   2.1402811
  52.4959145  43.7938135  68.1566582  53.2036415  44.0928141  68.7275810
  52.7948422  44.0072818  67.2727435  15.9085328  70.9243310  30.4182894
  16.6307725  71.4327031  30.7872874  16.2482669  70.5945241  29.5864000
  64.5433261  32.2704388  46.0312015  64.3889106  31.8185692  45.2016224
  64.2934204  33.1783541  45.8595370   6.1614726  58.6487619  39.3759628
   5.2465804  58.7861512  39.6215809   6.4704419  57.9682839  39.9740594
  50.6838993  22.2521626  38.9904567  50.1523014  23.0458770  39.0508967
  50.1797156  21.6688293  38.4232239  73.1084430  23.1687769  83.5545728
  72.1800129  23.3700612  83.6717649  73.3676718  23.6740960  82.7840633
  57.8696913   3.8860931  40.9044207  57.7919459   4.6949145  40.3984609
  58.7394037   3.9344913  41.3012705  81.4747068  55.4163212  31.7993955
  82.1113654  56.1086010  31.9772899  81.3019670  55.0240789  32.6552803
   8.3316020  60.2554517  80.0028234   8.6529623  61.1549298  79.9403843
   8.9884771  59.8025956  80.5316601  83.1650874   1.4384506  60.3886202
  83.6022803   0.5960585  60.2642424  83.4117858   1.7080131  61.2733280
  65.6919717  64.4157579  59.2747736  66.1601071  64.7298229  58.5011818
  65.6162386  65.1859954  59.8380059  31.5728571  28.2226188  18.9178202
  31.5373256  27.3403024  18.5483785  31.6993446  28.0843252  19.8564935
  12.7149714  54.3277816  52.1391364  11.7664142  54.3582830  52.0144736
  12.8281064  54.1257048  53.0678975  23.6380428  13.5090228  53.2453064
  23.4593168  13.6779064  54.1703832  22.8763035  13.0161207  52.9402938
  79.4334674  26.5788982  47.1395838  78.7345663  27.1920198  46.9118757
  79.1924603  26.2521848  48.0064204  30.1898156  46.5299864  13.4571825
  30.0615952  46.5566836  14.4053801  29.4828434  45.9705464  13.1355476
  39.0802391  34.9215105  53.2204752  39.2977020  34.0050447  53.3908634
  39.8460609  35.4096224  53.5229576   3.0958268  27.4122713  54.1563576
   2.8039188  26.9915900  53.3476248   4.0018631  27.6662040  53.9807207
  76.9043991  41.2574181  52.6044278  76.5620380  40.3636397  52.6178715
  76.6633500  41.5932734  51.7411037   0.8033568  20.4871953  61.5829472
   0.6858884  19.5421212  61.4866763   0.6378185  20.6558683  62.5105130
  83.3953834  14.1783650  17.2926380  84.0193363  13.9251337  17.9729236
  83.2757652  15.1200319  17.4158729  17.3251823  41.9753116  34.8912370
  16.6099566  41.6083962  34.3715668  17.2907926  41.4952860  35.7186575
  79.5814110   6.8681694  71.3812698  78.8538406   6.3787153  70.9974628
  79.4294766   7.7739263  71.1115434  16.4479044  34.4522726  84.9130968
  16.8336096  34.6884874  85.7566997  15.5833837  34.8630816  84.9215727
  69.2540784  29.7058474  42.9685119  69.1963022  29.5685017  43.9140435
  70.1458276  30.0234908  42.8266744  14.5304043   7.9377234   0.9944967
  14.4191561   8.7599445   1.4717893  13.6542427   7.7281253   0.6710137
  45.1960733  53.1581230  77.9175719  45.7751596  52.4989547  77.5349649
  44.8076896  52.7238874  78.6770647  33.1001777  66.6633573  22.6232403
  33.6163884  66.1203519  22.0275026  32.1912450  66.4911640  22.3774302
  59.7099299  67.9646781  42.1762017  60.1249917  68.4027936  42.9191757
  59.7459784  67.0338440  42.3963840  40.1349635  27.0748896  76.2661185
  39.9473616  26.1366166  76.2922149  40.1345244  27.2934007  75.3341933
   7.9883884   3.6725924  68.1655382   7.9825869   3.6938796  67.2085925
   7.9060682   4.5899825  68.4260199  75.1106455   1.0255698  38.1952549
  75.0857041   1.8876755  38.6104459  74.8054245   0.4238248  38.8742063
  34.8227185  52.9781838  11.0810744  34.1267637  53.6188804  10.9348328
  34.3941045  52.1295006  10.9703548  15.9515545  55.1806170  14.0912495
  16.0931416  54.6721323  13.2927333  16.7603039  55.6801339  14.2036736
  60.9401203  62.4074156   2.2882523  60.7205403  62.5518390   3.2086643
  61.2427986  61.4999861   2.2537629   6.0180259  11.0726028  80.0677014
   5.0880413  10.9376123  79.8856630   6.0703380  11.9711006  80.3935801
   0.8528130  48.7330179  50.2150158   1.6360210  48.8771449  49.6839371
   0.1936967  48.4274908  49.5917576  58.6972011  27.3933780  86.0341784
  58.0807966  27.5433229  86.7509726  59.2964634  26.7263855  86.3691971
   1.2784892  63.0416209  79.9449178   1.0626251  62.1355783  80.1656468
   0.9427950  63.5538501  80.6805552  65.6908843  38.8680289  12.7080332
  66.0602868  39.1824805  11.8828703  65.0325097  39.5227580  12.9406370
  45.0114060  61.0977153  67.6649882  44.2699605  61.0078252  68.2636619
  44.6193998  61.3816091  66.8391751  77.5517933  41.5459227   7.3830978
  77.2048917  42.3139697   6.9292310  78.4611271  41.7730006   7.5774671
  61.6796297  56.8040228  11.8332151  61.3703242  56.7960658  12.7390289
  61.4848855  57.6878022  11.5213808  78.3862838  39.4754733  13.9294642
  78.7834205  38.6187850  14.0863061  79.0568875  39.9671624  13.4553711
  47.4191054  43.3635853   4.0932392  46.5894579  43.4017276   4.5691196
  47.8366876  44.2061511   4.2719565  27.7152940  56.0209665  68.7763669
  27.5780624  55.8878198  69.7142748  27.2535913  55.2926043  68.3609744
  76.4394300   2.1078912  27.1879395  75.6653119   2.5216312  26.8061120
  76.3155659   1.1726426  27.0260767  40.5807351  18.1195199  76.4187464
  41.2800890  18.7466646  76.2348294  39.9228750  18.2898713  75.7446305
  13.8285599  56.2600826  81.7961303  13.2344597  56.4540287  81.0711049
  14.0585504  57.1178367  82.1533335  65.9146835   7.1322645   9.9529403
  65.6211143   6.3299361   9.5212946  66.6095555   6.8450674  10.5453106
  51.7298001  57.8673877  14.3486487  52.3997681  57.7150212  13.6821962
  51.3152169  57.0133671  14.4711290  29.7839713  61.5718087  19.0378952
  30.6575591  61.3715198  19.3739914  29.8543705  61.4375502  18.0927759
  31.2821569  69.6652341  61.4463613  30.6914323  69.9924897  60.7679957
  30.7743598  68.9944716  61.9029264  53.4426496   0.8028031  52.2441036
  54.3063636   1.1857668  52.3976247  53.6243456  -0.0973096  51.9738898
  74.7385026   8.9324399  13.9615258  74.7077236   8.1231889  14.4718172
  75.6331871   8.9683566  13.6231748  57.6766958  68.4682970  48.4984608
  57.6182215  67.5135875  48.5350991  57.1968631  68.7073905  47.7054748
  64.9466909  25.9580727  83.1276781  64.3681497  25.8428207  82.3738619
  64.5003345  25.5057983  83.8435313  19.5761051  28.8484283   4.5730457
  20.2624099  28.4056385   4.0738917  19.8891051  28.8317759   5.4774712
   4.4495194  53.8910646  69.4475738   3.6796859  54.2450710  69.8928465
   4.1399757  53.0816601  69.0410288  47.6089678   6.2856504  10.9002543
  47.5037947   6.4540000  11.8366457  47.6476676   5.3317242  10.8312689
   7.0498202  67.4628929  67.4021671   7.2026701  66.7458949  68.0176204
   6.6457415  68.1506569  67.9312539  74.2268141  12.8225404  35.3620068
  73.4535239  13.0226129  35.8894773  73.8760218  12.5802521  34.5049928
  16.8393529  38.8041282  26.9896299  16.3614020  38.2740865  26.3517816
  16.1862240  39.0276356  27.6527279   4.8040541  21.7901210  83.9642272
   5.6481967  21.3691760  83.8015603   4.2231444  21.0723674  84.2164283
  30.7091943  35.2722518  76.0392174  31.0404235  36.1007538  75.6926579
  30.3815283  34.8050685  75.2707080  24.3766440  41.5254684  72.6723687
  25.3335240  41.5350460  72.6951901  24.1146519  42.1486159  73.3500700
  47.2191810  14.4402822  83.1370475  46.7831641  14.6962529  83.9498206
  47.8024734  13.7257650  83.3929124  44.6224480  21.0780508  21.9561615
  45.3154589  21.4150716  21.3883721  44.4715934  21.7780784  22.5913277
   4.0129716  47.4493376  83.9778670   4.5663343  47.8619703  84.6410079
   4.6220384  46.9475191  83.4361589  70.6767556  56.7233906  80.9808640
  71.6313609  56.7731114  81.0307481  70.4805755  56.8144600  80.0484202
  84.8572953  34.9652426  42.5001661  85.5657548  35.5050760  42.1495996
  84.0569304  35.3960597  42.2000918  31.7555514  37.7099048   2.7861858
  30.8251954  37.8931351   2.6554329  32.0214331  37.2432924   1.9938401
  37.5825816  26.4770518  17.8416212  36.7847411  27.0033633  17.8933759
  38.2227938  26.9606227  18.3636551  16.8895647  14.6799513  23.1982811
  17.8198659  14.5227628  23.3597225  16.8298332  14.8133803  22.2523103
  31.9537593  22.1615509  85.4024158  32.5723725  21.5783587  84.9626019
  31.3378994  21.5725998  85.8384032  22.5094959  58.5301245  44.5967669
  22.3566224  59.4251959  44.2939324  22.6533506  58.6173705  45.5390651
  60.7191980   0.8117071  42.9536125  60.5895151   1.0988336  43.8574779
  60.9571482  -0.1124812  43.0276903  80.0069950  44.1088026   6.7606949
  80.7546227  44.4331507   7.2627735  80.1539814  43.1652578   6.6947397
  60.5938218  -0.0405328  18.0815095  60.1507539   0.0823419  17.2419713
  61.4500977   0.3704931  17.9628453  73.1856153  51.8862830  24.5022713
  73.7728100  52.6318217  24.3773459  72.9710939  51.5990164  23.6147521
   4.8450934  44.4920251  22.3840057   5.3197194  44.1318402  23.1331577
   4.9797413  43.8521039  21.6850046  12.4239541  68.1887172   1.1350314
  12.8198477  68.5641978   1.9214883  12.9187938  68.5725922   0.4111492
   1.5605076  31.5772930  25.8118728   2.3743670  31.4647616  26.3029955
   1.5778010  30.8797768  25.1565836  34.0613806  67.7267793  29.3499832
  33.9993299  67.4058557  30.2496440  33.9314729  66.9482389  28.8084753
  68.7040926  12.9996620  18.5388930  67.7766787  12.7799158  18.4503099
  68.7657264  13.9052908  18.2351342  59.9557867  53.7142294  74.0361811
  60.0906786  54.5645920  73.6179474  59.0910411  53.4342175  73.7361139
  19.2432542  59.8689635  57.8257068  18.3854580  60.1967927  57.5556225
  19.0500159  59.2264386  58.5083873  78.9971375  19.6237318  85.7239846
  78.8509090  19.4307934  84.7979047  78.3712299  20.3193483  85.9254522
  63.2751184  37.1192752  39.3662194  63.2665409  36.6678577  38.5221931
  64.1504870  36.9549138  39.7168576  30.3542577  26.5148017  81.7790439
  30.7085896  25.7719497  82.2677686  30.8692146  26.5384330  80.9725126
  77.0402735  32.4496086  62.1650745  77.9637834  32.3370655  62.3902307
  76.5842711  31.7896488  62.6873261  46.4880411  14.7428139  46.4333119
  47.2573563  14.1860596  46.5533560  46.8027858  15.4752763  45.9035323
  70.4351887  65.6104592  70.4527046  70.3067065  66.2222741  69.7278553
  69.5498292  65.4077671  70.7548411   5.4091631  33.8999956   8.5919737
   5.7635734  34.7648824   8.3855860   4.5059841  33.9297046   8.2763522
  59.2271025  36.5820438  72.1109402  58.4399581  37.0162833  72.4396826
  59.0644241  36.4680762  71.1745754  29.4024859  62.4068288  48.9159086
  29.8861567  63.0173687  49.4722678  29.3694099  62.8364200  48.0611635
  48.7588229  43.5545350  24.9662034  49.6520280  43.7453922  24.6798644
  48.8616714  43.1922253  25.8461953  12.1983226  67.1517362  17.6437532
  12.3822772  68.0850196  17.7504044  12.6923257  66.8978004  16.8641960
  85.0051490  48.8152397  34.7784100  85.5599895  49.5611672  35.0063925
  84.2372319  48.9066873  35.3424779  14.6348076  53.5883623  20.6253433
  15.3622993  53.4286005  20.0241246  14.2690746  54.4261579  20.3414952
  81.9055385  40.2928828  86.9436735  81.3886082  40.8855560  86.3980057
  82.2975144  40.8596222  87.6080479  59.6232097  61.9711093  65.3379718
  59.5143707  62.7580679  65.8719026  60.1615800  62.2553850  64.5993402
  13.2407029  13.0088146  17.4262743  13.4710582  13.3406211  18.2940719
  12.7771539  12.1892464  17.5985016  22.5166717  65.1801614  80.5457832
  22.5408862  65.2300751  79.5901922  22.2949564  66.0680223  80.8264560
  59.1237804  11.4791095  79.0547301  58.3344286  11.2052948  79.5218287
  59.3538643  12.3215718  79.4465854  67.9233231  69.0372207  75.9862231
  67.9066255  69.5943016  75.2080110  68.8497558  68.8342221  76.1156285
  52.4445623   3.6902752  67.2749924  52.8184171   4.4017173  67.7949103
  52.2799763   2.9916805  67.9083238  80.0298438  46.4015696  14.8134598
  79.8052084  45.4716801  14.8462654  80.9868747  46.4172358  14.8223075
  15.7244419  57.8860641   2.2112235  15.0097977  58.2510652   1.6894095
  15.9119700  58.5596665   2.8649245  14.3095669  25.9673399   6.6191506
  13.6247127  25.7888161   5.9746851  14.3206106  25.1905372   7.1783351
  22.8996514  63.9017277  60.4690853  22.7678306  64.3490051  61.3050267
  22.6248210  62.9997977  60.6340776  67.4597092  52.5258338  68.4646804
  67.0074977  52.7373846  69.2813705  67.5119092  51.5700676  68.4604413
  69.9593649  36.8395762  35.9561263  70.5155753  36.3777242  35.3287871
  69.9437987  36.2712450  36.7261842   5.9189409  18.9215296  59.5966118
   5.1444781  19.3027278  60.0102871   5.5996708  18.1187997  59.1843944
  71.2245179  14.2822819  14.5298643  72.1524817  14.1144558  14.6940269
  71.0949490  15.1924906  14.7962549   6.4657438  57.9691713  36.4973527
   6.2892069  58.1768095  37.4149327   7.3416700  57.5832321  36.5033559
  37.6521411  45.3596380  43.2449427  37.3762272  45.7987295  42.4403919
  38.4979189  44.9683705  43.0263070  64.7979398   5.7264734  57.1200806
  64.6295847   6.0600724  58.0013298  65.3269393   4.9408150  57.2584002
  59.3106941   3.3077857  26.6818556  59.4389309   2.5113276  26.1666453
  60.1410602   3.4319802  27.1415290  79.1648488  38.5769058  46.7167273
  79.8418424  39.2315253  46.8881475  78.4212560  39.0818738  46.3876241
  65.8711050  32.8275845  79.0395052  66.7387826  33.0093956  78.6785175
  65.4231724  32.3365964  78.3506519  48.3861811  22.2991441   5.7681135
  47.5215818  22.7008449   5.8537658  48.2474652  21.5546918   5.1826389
  79.0830577  22.7069658  25.1478305  78.4054243  22.8120393  25.8156660
  79.9057828  22.8418003  25.6181228  39.5428142  68.0639415  38.0208219
  38.9267113  67.3317436  37.9976856  39.8708526  68.1293679  37.1239707
   7.8348742   1.3007137  84.2477975   6.9532093   1.0700812  84.5405560
   8.3822526   0.5712664  84.5385128  46.6707134  41.2472401  24.6143123
  46.4548064  42.1767722  24.6890529  46.4348402  41.0180923  23.7153758
  53.1821086  21.5260420  14.7484628  53.1643184  22.4826797  14.7209028
  52.4120307  21.2576304  14.2472971  10.0721254  28.1187244  14.5984449
  10.6203937  28.7547453  14.1389765  10.4885442  27.2743760  14.4255204
  81.8989779  28.4151377  70.0954726  82.5838851  28.5408194  70.7522360
  81.0923217  28.6813735  70.5366710  28.9512963  24.1443919   4.6647973
  29.7620172  24.6044758   4.8822512  29.2298908  23.2516897   4.4605923
  27.9985224  51.9983077  66.0176695  27.5667587  51.6255475  65.2489941
  28.6478900  52.6026745  65.6580943  51.3728666   1.0900177  60.4401873
  51.2125858   1.8151002  59.8362029  52.1577562   1.3493526  60.9228109
  42.2037173  48.0682903  54.2162705  41.5286581  48.4256172  54.7931971
  41.8217961  47.2608868  53.8720791  38.4763851  58.2400664  70.6704485
  38.4879786  57.8056776  69.8175688  37.8622208  58.9660728  70.5611380
  78.7478608  49.0250625  14.9565217  79.1088979  48.1420220  15.0347741
  79.1205952  49.5027511  15.6975443  14.1210316  39.6993138  71.2042617
  14.5355689  39.0089385  71.7217292  13.2902747  39.3188335  70.9191133
  32.8503900   2.5253413  69.7982202  33.4539483   2.5583755  70.5404182
  32.3576343   3.3440948  69.8535953  64.6684539   2.2177343  81.0062088
  64.0849583   2.6051984  80.3538007  64.7115150   2.8693181  81.7060774
  29.9439963  -0.2657880  39.0955711  30.2799924   0.2263572  39.8446583
  29.7976522   0.3964312  38.4200854  38.8905140  67.8223298  58.9784175
  39.6695986  67.7810542  59.5329942  38.3821550  68.5515450  59.3334501
  70.1078713   0.8090201   9.7951888  70.6871548   1.1726195  10.4648589
  69.7405927   0.0221033  10.1978054  24.2658755  16.1147765  69.7513780
  24.6729815  15.7882251  70.5537873  24.2497733  15.3577885  69.1657656
  35.4439831  38.3807598  29.2527284  36.0879075  37.7380061  29.5501520
  34.9928438  37.9496200  28.5269022  61.1227740  61.7932015  31.5027504
  61.6126092  62.6068730  31.3834520  60.2398191  62.0776004  31.7388431
  51.7170688  21.3313896  81.2316698  50.9898704  21.0608286  80.6711245
  52.2466678  20.5407977  81.3352126  46.7540394  58.3860458  64.8652704
  45.9912399  58.5054166  65.4310613  46.6080148  58.9886678  64.1360548
   1.4596018   1.3207831   7.3902782   1.4433994   2.2627577   7.5595507
   0.6068399   1.1332166   6.9980437  26.5596061  63.2815909  84.4960170
  27.4568603  62.9559936  84.4242317  26.0373356  62.5034912  84.6910204
  39.1612530  24.3550106  75.4676448  38.6680730  23.7296603  74.9366624
  39.5637290  23.8220064  76.1533208  85.7346482  37.3537454  57.3413159
  84.8380346  37.5803306  57.0943846  86.2714071  37.6776472  56.6179837
  63.6658992  48.8193935  40.8869210  62.8942061  49.1313805  41.3595579
  64.1535548  48.3100969  41.5342547  75.8564822  16.7284051  22.4711145
  74.9060195  16.6284895  22.4175493  75.9982366  17.2515068  23.2601025
  83.0315755  30.1523497  26.4694398  83.7191635  29.9074580  25.8501801
  82.3050683  30.4429098  25.9180835  85.2885852  55.8726949  73.2340371
  85.9307615  55.1922184  73.0320640  84.5202035  55.3927578  73.5430384
  57.0435993  51.6546190  62.3684590  57.7690663  51.5341391  62.9811695
  57.4666420  51.8252675  61.5269450   4.4578359  32.2161625  60.3912447
   5.3887923  31.9941436  60.4073577   4.0363376  31.4527370  59.9965898
  56.8927840  61.9138698  10.5110224  56.4637960  61.9434098  11.3661999
  57.3807873  62.7357058  10.4593488  75.6090492   3.3663559  21.2498852
  75.4367343   4.2020776  20.8161702  75.4158968   3.5311666  22.1727944
  43.9859527  33.1303451  22.4479144  43.8681668  33.4017031  23.3582567
  43.8964473  32.1775614  22.4685027  19.1525045  53.7075141  16.7178697
  20.0653384  53.4434372  16.6028502  18.6464933  52.9316787  16.4764907
  59.6240744  28.3567547  11.1941811  60.3046167  28.8810185  10.7719947
  59.1178385  28.9881945  11.7052983  40.0009333  67.0705682  33.2815421
  40.4002869  66.2478446  32.9989213  39.3170628  67.2398712  32.6335532
  44.4256802  53.9507842  84.6332556  43.7713167  53.2535172  84.5901398
  45.1020688  53.6086681  85.2177955  62.2803085  23.4605149  18.3029964
  62.0197784  22.6087825  17.9524140  61.6367004  23.6449756  18.9870831
   3.1179556  16.3883846  69.6510272   3.4432226  15.8036118  68.9665756
   3.8401816  16.4504916  70.2761385  64.6287666  27.0677149   4.4391817
  64.9416855  27.7651936   3.8631286  65.1121531  26.2905720   4.1587923
  39.8824256  53.2463705  28.0534700  39.9847792  52.3648164  28.4121033
  38.9978692  53.5078050  28.3092899  71.4413981  32.6355146   8.8429666
  71.9199419  32.8574943   8.0442472  72.0457045  32.8533560   9.5526078
  59.0581529  23.5497560  85.2793997  59.4073358  24.1271903  85.9582759
  58.5983800  22.8630007  85.7623158  53.4742015   7.3733627  74.4154888
  53.6819179   8.1821491  73.9475676  54.1799193   7.2787643  75.0552117
  85.7959665  70.0279526  40.4827297  85.1109571  69.4732642  40.1094808
  85.9973419  70.6580961  39.7909212   6.1904727   7.9765989  31.0153048
   6.4494547   7.3507653  30.3389229   6.3280172   7.5093075  31.8392903
  68.8886779  51.4979871  65.1644971  68.3579282  50.7015245  65.1509343
  69.7814455  51.1883107  65.3171348   5.0331176  14.7833633  24.4207811
   4.4512969  15.3866880  23.9584870   5.4761472  15.3287022  25.0708289
   9.6466805  49.0255554  84.8880391  10.3848090  48.4510006  84.6848521
   9.9929810  49.6409344  85.5342716  77.4268765   0.6825721   7.8716401
  77.4630341   1.5955540   7.5863534  77.8915240   0.6745466   8.7084616
  12.4041817  56.8475249  88.6367076  11.8325554  57.1374156  87.9257655
  12.9977179  56.2190306  88.2256827  59.4695058   9.9640185  23.9477433
  58.9783295   9.2481566  23.5446063  60.2709220   9.5523551  24.2710034
  41.3344539  68.6403748  69.1124040  41.1000017  68.7876076  68.1961144
  41.0502912  69.4355856  69.5630959  71.8214351  22.6280699  31.9229751
  72.3579763  23.3601926  31.6190809  72.2653803  22.3170507  32.7119057
   9.6212240  36.5914609  66.5922918  10.5495787  36.3778426  66.6858684
   9.1779574  35.7431540  66.6033433  78.7931167  45.0840284  25.5712105
  78.2219217  45.7838805  25.2547058  78.3290915  44.2769943  25.3484806
  10.4751327  64.9088049  68.0052834  10.6042111  64.7969053  67.0634505
  10.6455261  64.0424796  68.3749840  25.0314393  45.8994525  27.4268999
  25.1525083  45.7008682  26.4983858  24.1651744  45.5498158  27.6356368
  84.7288156  14.0267851  37.5498660  84.0841545  13.4250281  37.1776664
  84.5697397  13.9947097  38.4932100  55.8134534  68.1597235  59.0239697
  55.3724923  68.5718097  58.2810227  56.1000929  67.3093982  58.6907783
  13.2284532  61.3616101  48.1010183  13.2703558  60.5638019  47.5737820
  14.0205526  61.8453235  47.8668562  42.6006266  44.6982942   4.9799184
  42.0826085  43.9395103   5.2485001  43.5012864  44.3754506   4.9513568
  33.2995989   1.4031469  24.4496159  32.5709437   1.1626608  25.0218571
  33.0391879   1.0869335  23.5844992  18.6081513  70.2919606  74.2651448
  17.6717341  70.2702695  74.4623358  18.6886738  70.9286259  73.5549298
  22.8415918  48.1204118   1.4100576  22.9304255  47.5620456   0.6376797
  23.5310448  47.8209322   2.0026776  83.9056835  26.5167218  23.7043998
  83.5246751  26.9588873  24.4630527  83.9236816  27.1865480  23.0208497
  31.8913554  68.0288172  17.8243706  31.3101805  67.7279182  17.1258526
  31.5205524  68.8671376  18.0999716  73.8954849  43.7019738  26.7065192
  74.2824821  44.5558793  26.5133602  73.8768744  43.2509840  25.8624259
  72.4238387  18.2665862  35.5764231  73.2687536  18.7140705  35.5305065
  72.0316519  18.4063178  34.7145086  52.1511336  62.9934141  45.6791538
  52.5815476  63.5664988  46.3136216  51.9287886  62.2075963  46.1784383
  33.4283528  46.9470287  10.1719531  32.5051156  46.7141252  10.0738666
  33.9039809  46.1736652   9.8687721  46.5252963  31.8135877  62.8558707
  45.8778157  31.4104753  63.4342314  46.3166987  31.4706289  61.9869069
   9.5723492  34.1676185  33.1370646  10.1573646  34.8577986  32.8245903
   9.7249027  33.4355885  32.5394933  72.0672015  37.3193261  49.9152923
  72.3301545  38.1381915  49.4951172  71.1561774  37.4632692  50.1713143
  61.4361098  17.1493315  31.3309975  62.1708210  16.8439532  30.7988551
  61.7838687  17.9012793  31.8104452  30.6934827  65.7347782  63.7310704
  29.8969157  66.2586685  63.6459126  30.3909649  64.8923041  64.0701164
   8.3536347  33.5795529  85.2298386   8.9133805  33.5946608  84.4535086
   8.7743926  34.1849647  85.8403065  86.8922486  39.9174214  31.3115076
  86.1828942  40.5424451  31.1618628  87.2630780  39.7634443  30.4425953
  32.2926933  61.3168114  19.8822932  32.1846863  60.5253965  20.4097673
  32.8915672  61.0579472  19.1818853  48.7305453  13.3608344   2.9450868
  49.6634332  13.4564208   2.7532138  48.4981818  12.5053462   2.5840067
  34.2539625  19.6386813  81.8236224  34.9522698  18.9844541  81.7994269
  33.9467963  19.6947129  80.9187792  55.3861822  51.0618092  64.4281123
  55.9070287  50.3222262  64.7411103  55.8920906  51.4192434  63.6983662
  14.5201985  34.5820511  16.2100245  14.0053370  34.0159619  16.7850832
  13.9333901  35.3089845  16.0015647  23.1777351  62.9453088  86.4957578
  22.8974607  62.9740173  85.5809606  23.8595264  63.6142323  86.5584774
  58.1171834  34.4312898  56.8536210  58.7472327  35.1250146  56.6586454
  58.5997393  33.6191658  56.6992637  14.5133835  68.3577957  74.6861084
  15.1055176  67.6646452  74.9779155  14.9033508  69.1639720  75.0240982
  65.0391750  63.0050514   5.5318338  65.4296997  62.7462636   4.6971176
  65.6519796  62.6831969   6.1929783  77.1242979  18.1523991  63.2112271
  76.6964277  17.5544722  62.5983302  76.4070678  18.6603097  63.5904891
  79.6642839  48.8368178  37.3533312  79.1884550  49.6141539  37.0608123
  79.0656715  48.1102643  37.1800825  34.1437646  22.4033107  78.8755971
  34.8045330  21.8935506  78.4068098  33.4579192  22.5607688  78.2267097
  51.0148924   2.9936652  86.1031372  51.1252133   2.5325759  86.9346766
  50.5002035   3.7693761  86.3258474  74.4340590  37.3056795  47.1564828
  74.9618577  38.0673490  47.3963159  74.7154101  36.6192532  47.7613732
  76.6765788  34.5838166  74.5591895  76.7267798  34.4075057  73.6197077
  77.5655042  34.8427022  74.8021333  72.0783606  61.5666337  51.0908613
  71.5705963  60.7745170  51.2668112  71.7357291  62.2128475  51.7083104
  50.0192163   5.9566093   8.9262796  50.4923538   6.2108835   8.1339934
  49.0967164   5.9787294   8.6718462  12.7649990  42.6526992  72.7773053
  12.0070171  43.1800522  73.0294839  12.8028994  42.7283736  71.8238543
  57.3586102  29.1570768   6.3636731  57.8911156  28.3961056   6.1321724
  57.7347224  29.8760296   5.8558559  29.2934770  57.9198265  49.7771273
  30.0749918  57.4266675  49.5276064  29.6288439  58.6608364  50.2817709
  17.6565756  57.9910902  51.9494484  17.1741596  57.9279358  52.7737774
  17.0276392  57.7163704  51.2822155  56.5373495  58.9548638   1.8462099
  57.1185805  59.1044374   1.1005357  56.9178535  59.4743246   2.5544535
  11.3553308  66.5876602  76.4535912  12.0078875  66.5128508  77.1498708
  10.5140378  66.5397267  76.9076400  79.2362401  49.6522388  33.5320208
  78.5119052  50.0782912  33.0737087  78.8156643  49.1494861  34.2295791
  14.0736674   6.3396220  84.9813876  13.2442709   6.7643054  85.2004248
  14.3765070   5.9646800  85.8083934  66.4033711   4.7897278  79.9291827
  66.2164251   3.9907172  80.4219961  67.1013034   5.2187116  80.4242537
  32.1608872  34.2960359  18.9150498  31.5629914  33.9966558  18.2301234
  32.0511244  35.2468041  18.9300094  11.5540842   8.2993800  21.9678740
  11.0996452   7.4728618  21.8048259  12.3602970   8.2344693  21.4559762
   3.9660708  59.0803218  25.4373935   3.4646485  59.0913480  26.2526762
   3.9200496  59.9806731  25.1157085   5.8714050   9.0479653   5.0930685
   5.8658684   9.9045524   5.5202216   5.6371960   8.4324252   5.7876823
  43.6582624  39.6506136  82.8790197  43.4834147  39.1771748  83.6923560
  44.1518552  39.0305125  82.3422959  61.8701146   3.7406718  54.1764466
  61.7417889   3.1726642  53.4167547  62.3908198   3.2147507  54.7834926
  14.2924607  71.0170919  35.0699333  14.7104829  70.5760842  35.8095288
  14.4319205  70.4270054  34.3292709  10.2334972  13.5713929  75.3522025
  10.1168780  14.4762083  75.6419280  11.1440533  13.5289006  75.0601172
  56.0143765  61.4520577  12.8748549  55.6973143  60.5604113  13.0186260
  56.8581754  61.4818411  13.3257963  16.0574501  30.6514167  30.6136788
  16.9824395  30.8679387  30.4964410  16.0347487  30.1207253  31.4099722
  17.6059273   0.5599109  17.3695827  18.4311983   0.3032073  16.9581670
  17.0552982  -0.2207407  17.3093967  79.1898242  53.4623470  78.6595488
  78.4206025  54.0310454  78.6928945  79.6967321  53.6993223  79.4361561
  11.7720511   4.7888153  21.7897745  11.2047031   5.2514340  22.4064852
  11.8082076   3.8924694  22.1236735  19.8230219  47.8252735  86.5116889
  19.3582465  48.6544993  86.6239399  20.7492289  48.0604198  86.5671742
  75.2213374  70.2863367  72.4905635  75.9670172  70.4904470  73.0549503
  74.5568209  69.9415365  73.0870218  51.1105223  47.1144808  26.4238333
  50.1745255  46.9872000  26.2691026  51.1522498  47.8064774  27.0838570
  44.4064072  29.2157589  82.0846461  43.5027781  29.3511485  81.7994166
  44.8781576  28.9850375  81.2843642  27.6332282  29.3997166   7.7779499
  27.6773747  29.2403606   6.8351410  27.7722827  28.5390476   8.1731013
  82.5077653  19.8430251  28.1353198  83.2838028  20.2431597  28.5276078
  81.8635975  19.8254779  28.8431134  81.1372359  40.5430619  54.9283393
  81.1411561  39.5886086  54.8559839  80.2107783  40.7744469  54.9944385
  73.9104809  35.2642876  61.7499591  73.8429942  35.0295144  62.6754638
  73.5797066  34.4967212  61.2834165  48.2202541   7.3767051  52.0130773
  48.1421217   7.3634543  52.9669911  47.3405676   7.1693681  51.6978077
  69.6149993  70.0040954   6.1682059  69.1603544  70.8461195   6.1911224
  70.0750747  70.0030812   5.3288243   1.3325472  47.4317901  29.0327521
   1.7835418  46.8921654  29.6820910   1.9647951  48.1143497  28.8077926
  50.7609804  27.1403103  80.9046929  51.5371903  26.5844080  80.9732694
  50.8862949  27.8105700  81.5764667  46.0254715  32.1596002   7.7208485
  45.2163561  32.5875110   8.0009495  46.4896275  31.9680516   8.5357718
  16.6366675  40.1937918  56.4544891  15.8689418  40.7558311  56.3498904
  16.4821718  39.7277701  57.2761866   6.1837399  68.3167841  10.8224403
   6.3809184  69.2507210  10.8939554   6.2205293  68.1354533   9.8832931
  54.3876797  28.1205278  72.4502643  54.6378702  27.3149332  72.9026513
  53.5781486  28.3954401  72.8807458  17.5265036  42.6746184  40.6990027
  18.2112285  42.0729423  40.4068220  17.7120359  42.8159809  41.6273487
  75.3572435  30.9433283   8.1334476  75.3698883  31.8888706   7.9850509
  75.4346279  30.5625375   7.2586666  22.5706712  44.5264884  62.2972337
  23.3802898  44.3317336  61.8251954  21.8742764  44.2350750  61.7087235
  82.4680010  58.3590208  66.0461067  82.2150238  58.5027740  66.9580110
  83.0159506  59.1129129  65.8278642  15.4796754  11.5672233  26.5304262
  15.5230134  11.2899852  27.4455724  16.3760093  11.8255130  26.3157084
   8.9820588  30.4959567   1.0505270   9.0099838  31.1266057   1.7700643
   8.0724351  30.1988156   1.0276407  50.4195372  46.8490761  17.9532140
  50.2730536  46.5680706  18.8564362  50.2032151  46.0805435  17.4252043
  76.0528929  22.6129778  67.7316326  75.5238749  21.8684062  68.0179627
  76.8850031  22.2253611  67.4603803  44.5977196  22.0804265  77.3776044
  45.4969181  21.8905962  77.6452581  44.1382174  21.2461772  77.4730907
   1.6286567  24.7201105  84.0799318   1.0737574  24.7372153  83.3001715
   2.5017435  24.5108252  83.7480420  37.2774968  30.8682229  43.7587854
  37.6085741  30.4641646  44.5608805  36.5694743  30.2903824  43.4741164
  85.0864158  33.2549432  87.9585676  85.0177210  33.3148870  87.0057194
  85.6979757  32.5342688  88.1097455  73.4009159  25.7130896  52.2558099
  73.4315933  26.3545418  52.9656196  74.2507806  25.2742256  52.2926902
  69.3750362  10.0564484  83.7485855  70.2727198   9.8506625  83.4877249
  69.4393461  10.2715182  84.6790913  56.9890176  41.5889767  26.2080386
  56.5744841  41.9285876  27.0011706  56.8924568  40.6390357  26.2752683
  49.5213168  61.2595096  44.5747549  49.6711898  61.0911828  45.5050430
  49.0185937  62.0738644  44.5566548  45.2481531  44.2035354  45.6727516
  46.0116128  43.7899812  46.0756586  44.6958952  43.4713388  45.3986512
  66.4709329   3.4955969  57.4653549  67.3832350   3.6210439  57.2042042
  66.4971540   3.4684704  58.4218111  79.2793017  47.9121744  21.4833019
  79.5325252  47.9026684  22.4063509  78.6297533  48.6124270  21.4203334
  42.7994024  42.4174200  38.5672167  43.1155494  41.5525637  38.8285718
  41.9797080  42.2430902  38.1046780  33.7478493  42.3042788  86.4940461
  34.1630740  41.4941607  86.1981928  32.8179982  42.0867554  86.5595621
  58.1748199  65.8331953   6.7172488  58.0110335  66.1681808   5.8356647
  58.3389386  66.6153733   7.2440262  51.4046774  67.2405079  27.8442854
  51.8576428  67.8780119  27.2923408  52.0659543  66.9580153  28.4760627
  47.3991819  65.9366035  31.8664815  46.5628960  66.2347167  31.5087299
  47.1766030  65.1608901  32.3812235   4.7567905   7.9148968   7.7774731
   4.0670734   7.3404572   7.4449953   4.2943184   8.5588356   8.3138444
  52.0746411  57.6546828  51.8600780  53.0201489  57.5128152  51.9061276
  51.6952421  56.8715246  52.2587651  48.1211088   8.4932758   0.7105274
  48.1237870   9.1891461   0.0532685  48.7016792   8.8136092   1.4008581
  64.4851539  17.3886282  34.8504439  64.8943762  17.3420885  33.9863820
  64.5384673  16.4949488  35.1891571  61.6035482  50.5795863  49.1660135
  62.3063662  49.9755475  49.4056295  61.3096972  50.2764462  48.3069504
  70.7507271   8.5455467  43.9413651  70.0013696   8.1415171  43.5038091
  70.6380923   9.4842057  43.7914833  26.0931858  24.9805638  22.7766464
  25.5337971  25.6957013  23.0797875  25.7432573  24.7511977  21.9157323
  63.9894266  48.9524982  21.1730457  63.9224826  48.2251792  21.7917196
  63.1241556  49.3614753  21.1896481  84.4852953  32.3043307  79.4271525
  84.9375473  32.8311289  78.7682263  83.6865345  32.0085801  78.9904094
  85.8369991  21.8659450  22.6768629  86.4216805  22.6020047  22.4963199
  85.2899072  22.1669945  23.4023224  71.4706961  17.6178247  55.8452785
  72.0761842  17.4388209  56.5647044  72.0322457  17.9062146  55.1257473
  82.6125408  43.9328985  53.4092038  82.1927284  43.8175553  54.2616622
  83.5248367  43.6829379  53.5557227  32.3670170  38.7881919  65.6562244
  33.1270418  38.3966130  65.2258059  31.7518591  38.9626502  64.9439204
  19.0658997  51.0038224  47.3446245  19.9879595  50.8025638  47.1848352
  18.7910199  51.4971898  46.5717975   9.1378029  42.4722599  22.7420805
   9.5599155  41.9208902  22.0832602   9.8326000  42.6693445  23.3702895
  70.1996174  16.4001379  34.1860244  70.3348260  15.4612511  34.0577977
  69.6538562  16.6667619  33.4462351  42.1387370  48.5451856   4.6439446
  42.4295001  48.4333688   3.7388559  42.9455653  48.5272037   5.1586646
  10.6228134  23.9606186  70.3852148   9.7006672  23.7050519  70.4089644
  10.6335685  24.8514169  70.7353501  66.7254863  64.2138842  42.8314255
  66.5245416  63.3707661  43.2376335  66.6748623  64.0446211  41.8906710
  71.3704680  46.4655543  63.5323900  71.9633718  46.9541308  64.1033454
  70.4954435  46.7509007  63.7953373  27.2458151   8.2737892  68.5794203
  27.2543891   8.9319822  67.8844813  27.9597631   8.5317765  69.1624749
  30.8610585  50.5624519  27.2570043  30.5638945  49.7896541  26.7766826
  31.4855970  50.2211359  27.8970723  26.2927044  61.7047912  11.1201584
  25.3389871  61.7457793  11.1906935  26.5123439  62.3606828  10.4584965
  14.2195397   0.6648395  54.4897481  14.1777767   1.4008595  55.1002907
  14.6776870  -0.0221929  54.9738136  47.6291351  20.4952509   3.5779860
  46.8980587  20.4175598   2.9650234  48.1955091  19.7519559   3.3707064
  20.9255659  48.2975412  41.0815037  20.1998375  48.3722381  41.7011572
  20.7425460  47.4943814  40.5939896  75.8138006  43.2510241  20.0263834
  75.5550393  44.0660270  19.5962151  75.0703956  42.6630779  19.8925921
  73.6696012   4.4480833  74.3521890  73.8198662   4.7289756  75.2548250
  72.7210532   4.3350380  74.2912857  86.5518708  38.0436926  33.7099491
  86.9746538  38.4202216  32.9381250  85.6146959  38.1394290  33.5403334
  43.4200189  37.7118841  28.2710477  44.0480493  37.0638342  28.5901730
  42.5999193  37.4873741  28.7106655  65.3708571  66.0005794  28.2475475
  65.3460434  66.6820544  28.9192677  65.0078440  65.2265694  28.6780841
  30.7345952  48.7460213  16.2630965  30.0173356  48.8668030  15.6408568
  30.8015891  47.7971877  16.3701403  24.2839584  64.2346124  74.9867706
  23.4520341  63.8282845  74.7438063  24.2570524  65.0991161  74.5767203
  41.6216068  46.3034354  39.3342169  41.3409169  45.9623674  38.4850304
  40.8370963  46.7129233  39.6990385   9.0330605  41.6994581  42.3412596
   9.6991254  41.0138709  42.3918521   9.5314584  42.5109325  42.2446125
  34.4355343  52.2207164  61.5136101  35.1049028  51.6681094  61.1101215
  34.7053763  53.1150085  61.3046633  67.6328176  11.3215556  75.3549139
  67.8575324  10.4920535  75.7764129  67.2242946  11.0668728  74.5275824
  64.6754752  19.9545116  31.5901775  64.8295477  19.6060766  30.7120622
  65.1489782  20.7862732  31.6042982  70.9822918  39.0521418  30.8772937
  71.6078858  38.8073195  31.5591486  71.5133658  39.4863267  30.2097042
  57.5207810  44.8960709  14.9718676  58.0586251  44.1055579  14.9266493
  56.6477841  44.6073358  14.7058971  74.7302823  60.5049405  32.3692651
  75.2629235  60.2229757  33.1129190  75.3103191  61.0712287  31.8602397
  41.8198448  27.2584770  25.9432681  41.1498697  26.5765062  25.8955076
  42.3237048  27.0446592  26.7285316  72.6855863  29.1283316  17.2287053
  72.3041876  29.5224598  18.0131986  73.4324661  28.6248129  17.5525439
  65.2830718  54.7660733  71.8493518  65.1077341  55.2973393  71.0726633
  64.5083202  54.8827537  72.3992404  82.2208441   7.2090530  81.3621043
  82.8101306   7.9337059  81.5715115  82.3600392   6.5759590  82.0664115
  19.6604440  46.1872341  56.4808576  20.0465187  45.4399805  56.9377933
  20.0966542  46.1984510  55.6289030  45.6333657  59.4393130  30.4110263
  45.9329827  60.2509172  30.0014409  45.0441405  59.0486825  29.7656944
  76.6806863  18.3886464  80.0949949  77.4780579  17.8622856  80.0369028
  75.9873140  17.8085485  79.7804268  49.6865427  61.8813145   5.6642089
  50.4771266  61.8920160   5.1246772  49.0553803  62.4088484   5.1747461
  72.9852010  35.2904007  16.2046233  72.7064986  34.4708123  16.6130736
  73.1089624  35.0681643  15.2818417  75.7352287  41.7294917  84.5842459
  75.8906926  41.2416578  83.7754932  76.4939113  42.3075307  84.6648902
  82.0607455  62.7587496  61.0740218  81.1257953  62.6526350  60.8984101
  82.2731668  63.6245419  60.7254351  50.9029502   5.2923929   1.7777921
  51.0429909   5.1874319   2.7188573  50.2328041   4.6440183   1.5615830
  37.9944295   6.8785810  69.9699315  38.2670088   7.1648881  70.8416887
  37.9444499   7.6855466  69.4575444   5.9762031  40.5608159  32.6532193
   6.0535507  39.7753185  33.1947384   5.6038154  40.2477196  31.8288833
  19.8742317  56.1411303  61.7354391  19.7313258  55.4026228  62.3273988
  20.6745819  56.5553290  62.0581012  31.7443783  24.9120559  84.5304396
  32.0467406  24.5265854  83.7081128  32.1532149  24.3767112  85.2105062
  19.7710432  53.3443062  26.1221022  19.2113081  52.5937758  26.3211818
  20.5880220  52.9570878  25.8077149  52.8644504  35.6833007  27.1131237
  52.0544346  35.6460698  27.6217691  52.9056537  34.8378828  26.6661306
  84.5677381  18.2247391  27.1964520  85.2233576  18.4842802  27.8437798
  83.8139158  18.7849838  27.3811396  19.9414346  37.4555901  21.4036362
  20.8793587  37.2733889  21.4613681  19.6253813  36.8691306  20.7163172
  70.8667624  70.2560222  53.1393636  71.5931163  69.9663578  52.5873343
  70.0980317  70.2018561  52.5716041  56.2726310  37.5888371  21.2439782
  56.1315606  36.6454769  21.1639624  55.4222239  37.9765619  21.0373164
  78.4118083  38.8765634  49.4538960  77.7410274  38.1996147  49.3643115
  78.9171261  38.8218556  48.6427900  46.3034746  38.9236769  39.4677586
  45.9287727  38.1741356  39.0051376  45.6148847  39.5881565  39.4444602
  79.2656105  47.8919424   2.4335716  78.6429825  47.1842708   2.2669364
  78.9539529  48.2998774   3.2414642  37.3465799  59.2324744  38.5442978
  37.2241948  59.3018949  37.5974955  37.7425957  58.3704513  38.6720458
  31.4042002  52.4695888  54.4885159  31.0140934  53.0416242  55.1494426
  31.9228240  51.8415436  54.9913283  82.7051574  63.3170400  76.5580123
  83.0250945  62.8123892  75.8102158  81.7836506  63.0703648  76.6368055
  80.2164110   9.8952762  45.9977219  80.2727200  10.8166387  46.2510050
  80.0933402   9.4269833  46.8234259   2.6892760   1.2552175  33.6649972
   3.3369067   1.4797180  34.3331332   1.9023241   1.7349352  33.9234727
  30.8874609   0.7359956  41.3538565  30.4173932   0.8988170  42.1716324
  31.7973275   0.6077451  41.6220476  13.3468823  53.4871528   7.8662477
  13.0922208  54.2159268   7.3003257  14.1332371  53.1281342   7.4551714
   4.7002629  68.0753960  13.9582156   4.5714144  68.3513277  13.0507513
   5.0464317  68.8520067  14.3978459  77.7790404  10.6941343  73.1012734
  77.4402000   9.8680474  73.4462364  77.3416703  11.3682480  73.6213791
  12.3974701  25.9521851  62.9879054  12.0967639  25.5035937  63.7782050
  12.1523376  25.3661339  62.2718845  72.6373040  39.0784776  86.7016120
  72.7922454  39.9260781  86.2847205  71.9352634  39.2456209  87.3304474
  54.4189436  13.9023456   7.5912711  53.8634303  14.6137695   7.9098821
  55.2456643  14.3276447   7.3634877   1.1406749  13.0853279  10.2109529
   1.4715386  12.2044696  10.0353118   1.8481932  13.5156210  10.6910543
  78.2245948  62.1432479  88.6554603  78.2416637  62.3387465  87.7185928
  77.5035525  61.5220083  88.7573976  29.3575898  58.0781083  54.9466568
  29.4859407  57.5610132  55.7418740  28.8474169  57.5088570  54.3705419
  21.7995482  11.4859145  66.8905559  21.5786939  11.5916909  67.8159027
  21.7755527  10.5401220  66.7451859  60.2090215  66.5490240  71.7045552
  59.5319007  67.1703253  71.4367419  60.6944092  67.0053009  72.3918995
   6.6502020   6.8580123  72.1226625   6.2707943   5.9803344  72.0783549
   6.0945222   7.3882735  71.5514578  24.9301786  46.1054922  73.6253191
  24.2387434  46.3579642  73.0134310  25.6890663  46.6229557  73.3559628
  64.5207698  57.1207407  37.4158289  64.4435221  58.0324700  37.1347340
  65.1930536  57.1362628  38.0970229  40.8969058   3.1125535   4.3750312
  40.5484751   3.6213963   3.6429746  40.8541330   3.7085431   5.1228272
  69.0781699  15.0285808  55.5413431  70.0277217  15.1242531  55.4676545
  68.8637467  14.3059891  54.9513297  78.2001437  38.0757227  61.9540058
  78.0802895  38.8694009  61.4325255  77.6542735  37.4196634  61.5205963
  19.3058299  63.6740068  49.5201031  19.0982243  62.8947956  49.0043884
  18.9948584  64.4047467  48.9857364   0.2941542  66.9317267  78.4275063
  -0.1816813  66.1320697  78.2030932   0.8097870  66.6952305  79.1984954
  57.4323048  32.4642395   2.6012508  56.5241294  32.4559395   2.9035429
  57.3696016  32.6188931   1.6587104  21.3613190  16.0388284   7.9267057
  21.7980148  16.3194935   8.7309170  21.2833778  15.0889442   8.0154577
  25.7600969  33.3629021  76.5678164  26.0383503  32.4564607  76.6988548
  26.4160327  33.8841069  77.0307696  79.9869984  50.0597091  51.8865380
  79.6207088  50.5727312  51.1662102  80.3203342  49.2652390  51.4694814
  37.7969793  34.1348991  21.7920104  37.4015802  35.0051324  21.8428565
  38.7399023  34.2994101  21.8000232  67.9446551  10.7305048  35.6180628
  67.5171793  10.1946097  34.9499964  67.2348835  10.9948045  36.2033848
  57.7655533  48.0263142  79.7157700  57.0377269  48.0368109  80.3373731
  57.4227688  47.5598158  78.9534644  74.7673814  15.4380168  82.8788026
  74.3790313  14.5904971  83.0958885  75.6431638  15.2247227  82.5567115
  23.7643617  71.0449868   1.7998475  24.2385025  71.8527326   1.9972534
  23.9059865  70.9069087   0.8633066  29.1900396  70.7488282  80.0505890
  28.6562686  71.4813643  79.7428370  28.5557586  70.0680265  80.2751519
   8.3944791  14.9076997  88.9592003   8.9780815  14.6137111  88.2597642
   8.1955047  15.8176082  88.7385024  67.6948923  41.9158051  11.6806305
  68.4340898  41.8535767  12.2855657  68.0608019  42.3253441  10.8966536
  66.2307366  43.6945624  67.6205331  66.5628945  43.8433036  66.7352201
  66.9477729  43.9651979  68.1939852  43.2588996  14.9924643  88.5576967
  43.2366620  15.8043769  89.0641898  43.5539012  14.3290496  89.1814650
  80.0486966  66.9978882  78.2662395  80.1679080  66.7033384  79.1691575
  79.1175547  66.8619738  78.0909285  21.3144971  68.9206951  44.9296333
  21.9558006  68.4995773  45.5020157  21.7462913  69.7226836  44.6353544
  67.3384502  66.1917467  17.9739935  67.6491758  66.4407198  17.1035374
  67.8314781  65.3993438  18.1867211  62.1030015  53.3224808  88.7835303
  61.9531828  53.7810499  87.9567893  61.8410643  53.9505624  89.4566826
  44.2126097  31.9204243   5.1293686  43.7317875  31.5609809   5.8749168
  44.8148718  31.2218336   4.8734717   6.2821097  39.6662517  26.4393219
   6.4670627  39.7708344  27.3726422   5.6710781  40.3742775  26.2354307
  56.4834496  33.7480354  80.3797929  55.5687370  34.0054745  80.4949347
  56.8429666  33.7381533  81.2668564  79.1619852   6.4053318  10.1430339
  79.3341756   7.1385686   9.5523174  79.8205576   5.7507442   9.9105919
  71.5134832  26.1189679  80.9009956  70.8360864  25.6953094  81.4281379
  72.2862446  25.5655989  81.0143730  46.4396339   3.6031962  49.7611736
  46.8073598   3.7179842  48.8849127  45.4921389   3.6380341  49.6297530
  67.4402788  25.7226139  38.0092353  66.7342320  26.2334329  38.4052071
  67.6795221  25.0838899  38.6808201  32.9777897  42.6252165  65.8294943
  32.5360024  42.9855176  65.0605737  32.5725364  43.0746800  66.5711035
   3.4323049  45.3935788   4.5860696   3.2846079  45.7811972   3.7234170
   4.3318049  45.0680918   4.5515742  43.0546948  61.0857289  29.6503660
  43.3821187  61.8012326  30.1954164  42.4618409  61.5094222  29.0296889
  65.8200701  23.4620226  51.6606340  65.8620506  22.9215688  50.8717239
  66.5553048  24.0688714  51.5746323  10.0643366  19.9095655   3.0540135
   9.4314685  20.6198104   3.1601370   9.6891354  19.1789888   3.5456572
  73.2447330  70.7684246  89.1036573  73.9039865  71.2551940  88.6090137
  72.4978566  71.3645886  89.1583920  25.4512614  37.6673860  17.5004555
  26.0535714  37.9138443  18.2023905  25.6828396  38.2442746  16.7725798
  38.5711241  40.6944344   2.5589951  37.9530028  40.6855371   3.2898020
  39.0278578  41.5315555   2.6417861   7.7176790  20.7891415  78.4878268
   6.8763060  20.3559313  78.6315356   8.0840930  20.8978341  79.3654136
   7.5119914  69.8928643   2.3664189   7.3360276  70.7829076   2.6715277
   8.3338091  69.9642035   1.8808694  30.5575259  36.8865900  30.5885156
  31.4558215  37.0695589  30.3131624  30.0245637  37.5127247  30.0984765
  49.5645761  65.2200023  84.9315507  49.7553408  65.4796304  85.8329018
  50.0704014  65.8298598  84.3944787  86.8325785  41.3704674  67.7030982
  85.9001204  41.1562827  67.7327412  86.9823849  41.6643063  66.8045168
  49.7578359  24.5962866  30.6278823  49.3163854  24.2103144  31.3844395
  49.0626475  24.7178403  29.9812219  68.5187599   9.2289602  52.7159977
  68.9143505   8.7100494  53.4163344  68.7838708  10.1289341  52.9057210
  39.0777160  46.3194374  29.8242832  38.5542891  45.9289712  30.5241348
  38.4842568  46.3577835  29.0742381  47.5734451  13.7543638   5.7616148
  48.3547185  13.6494620   5.2186238  47.2575236  14.6349512   5.5591517
  48.7910546   0.6274509  15.9616518  48.8549248   1.5823231  15.9809281
  48.6558059   0.4150445  15.0381676  30.6100587  56.7215114  17.0982453
  31.1518417  57.4985944  16.9609677  30.1281866  56.6174992  16.2777500
  16.8349769   1.8195243  24.6495375  16.7834965   2.0681023  25.5724626
  15.9651638   1.4762279  24.4450757  61.3431697  56.3453629  55.9969071
  61.3561511  57.2099579  55.5863725  61.3676500  55.7313495  55.2629997
  62.5573587  27.2941255  44.4293979  62.7340053  26.3562093  44.5024803
  62.8465456  27.6582212  45.2660800  85.5890174  18.7601384  45.3165007
  85.0738001  17.9637324  45.1879690  85.0527152  19.4562176  44.9369145
  60.4179372  24.7034878  56.0481733  60.2947387  24.2758672  55.2007097
  59.6086122  25.1949924  56.1883453  69.6852688  19.2554899  78.2768684
  69.6866237  18.7771751  77.4477454  69.0288034  19.9416317  78.1564755
  63.5919701  49.6309381  64.6003313  63.0754557  49.0184215  64.0766250
  63.5615294  49.2724857  65.4873584  47.6697015  50.7766580  42.4655496
  48.2771362  50.1692974  42.8878860  47.0698463  51.0395960  43.1635962
  65.4931828  37.7252363  63.9949168  64.5875628  37.4153347  64.0016440
  65.9600123  37.0890521  63.4530943  12.2246822  51.1006740  85.0875272
  11.7473693  51.3918466  85.8644588  11.6782355  51.3788020  84.3524948
  31.4671940  59.9995260  11.0411979  30.9457837  60.0822645  11.8396448
  30.8599984  59.6392151  10.3948843  47.0128916  47.1952969  58.9438999
  46.1493756  47.5050245  58.6706953  47.5497150  47.2546697  58.1536295
  83.1676109  19.9150691  53.0292835  83.0542152  19.3908231  52.2364788
  82.9520913  20.8076795  52.7590432   7.7451554  39.3922451   6.4637955
   8.5186318  38.8658662   6.2615797   7.1334957  39.2022716   5.7524487
  25.0593941  55.6695669  22.8389226  24.2525780  56.1620483  22.6881191
  25.0176990  54.9447287  22.2151415  21.2143887  33.2254500  75.9824751
  22.1389135  32.9819887  76.0295099  20.7551305  32.3967723  75.8460672
  59.0944819   6.5734363  55.7842146  59.6775983   6.2696398  56.4798544
  58.5278357   7.2164512  56.2104491  72.0730606   2.8204475   6.1455234
  72.1560645   2.9492962   5.2006741  72.5178356   1.9897631   6.3139588
  18.3987912  41.2345151  27.0567617  17.8798451  40.4401671  26.9305155
  17.7500992  41.9325633  27.1470898  62.2226702  45.3183968  35.1495722
  61.6854020  44.7507575  35.7021663  62.3093779  44.8384270  34.3259566
  19.2673513   6.4270625  88.6859776  18.5603001   6.9813645  88.3557355
  20.0573477   6.7744649  88.2719136  11.3530031  56.6074425  70.5672335
  11.9725808  56.3496647  71.2498064  10.9594459  55.7843176  70.2777337
  14.3155863  40.4961134   6.0432608  13.4836173  40.1446316   6.3603096
  14.5704536  41.1406312   6.7034663  74.7297120  21.2398044  22.4065370
  74.3217240  21.8071991  23.0606324  75.5571158  20.9707009  22.8055583
   8.0746300  42.2007695  79.1284552   8.4857307  42.2840908  78.2680567
   8.2012560  41.2823223  79.3664733  29.8832202  13.1559815  76.1161024
  30.1081384  13.9516903  76.5982758  30.7268727  12.7919311  75.8478683
  24.5343132  42.0844782  26.4766994  24.1971127  41.3064392  26.0326465
  24.3351652  42.8059853  25.8800425  66.7229276  67.6703377  24.7824467
  67.4354510  67.4168225  24.1956995  66.8334303  68.6138813  24.8996926
  68.9541373  50.5319212   8.6772937  69.4247666  50.6759930   7.8563289
  69.6195181  50.6397303   9.3569094  40.7565655   1.9269466  53.0145320
  39.9979866   2.4213319  52.7040921  40.6632238   1.0651129  52.6086233
  73.7666228  31.7202743  56.4443210  73.5448749  32.5193767  55.9663094
  74.3550509  31.2455174  55.8573031  61.9777253  50.1509837  27.7782877
  61.5073669  49.4905957  27.2694826  62.0460663  50.9028441  27.1898429
  62.8936422  31.4852014  56.8610582  62.5697565  30.8782039  57.5265534
  63.8184383  31.6057418  57.0765898  79.5887678  69.3820674  76.9617700
  79.9094793  68.6051778  77.4198296  79.1001694  69.8674256  77.6265488
  67.5366368  55.0497096  77.0412910  68.0835136  54.8897244  77.8104218
  66.6873696  55.3065243  77.4004893  15.8213855  65.2699050  54.6305552
  15.2749701  64.5397099  54.3399059  15.6434445  65.9679340  54.0002185
  47.4584356  25.9593821  74.6093184  47.8841004  25.2743883  74.0937365
  46.5985307  25.5979714  74.8242086   8.1636412  18.3365912   8.2516500
   8.0923598  18.0989242   7.3271689   8.0041888  17.5184627   8.7222586
  39.1878336  41.1561438  75.6651447  38.9028799  42.0287615  75.3939039
  38.8971196  40.5789940  74.9590178  72.8673345  45.7632708  56.3014982
  72.9468338  45.7491744  57.2552870  73.6806852  45.3681815  55.9874970
  45.8616241  12.3321783  18.9666897  46.2253110  11.4702959  19.1694763
  45.4321631  12.2175028  18.1189607  70.7825811  53.7362484   0.2459903
  69.8317666  53.6683671   0.1589518  70.9374114  54.6529969   0.4736558
   0.6843596  53.6410434  53.4032219   1.6224353  53.6926190  53.2199577
   0.5018005  52.7028811  53.4557147  34.4778684  44.4467774  82.0060750
  34.0479537  43.7809794  82.5428414  35.4066341  44.3665260  82.2232984
  42.7162625  60.8075663  69.4355451  42.1560202  60.5278994  70.1595250
  42.1221180  60.8851725  68.6890858  38.9440147  47.9352208  54.5238044
  38.3522135  47.8613081  53.7751121  38.8903087  48.8554807  54.7816206
  76.1515572  22.4818373  83.0733718  75.9139160  21.6494973  82.6647539
  75.4266749  22.6718748  83.6689080  82.4660138  23.0779527  31.6837076
  82.6200038  22.1541014  31.8812364  81.8247759  23.0672965  30.9731217
  52.9136074  23.5571978  16.9739031  52.7733091  23.6327510  17.9177462
  52.0985411  23.1826409  16.6398284  11.7017976  29.2652448  17.1736409
  10.9768973  29.1922724  16.5528137  12.4451117  28.8655994  16.7219776
   0.2639288  36.2698196  41.7680269   0.3081247  37.1684203  42.0948224
   1.1510531  35.9292202  41.8830681  66.3263357  39.7940324  54.0164538
  66.2299821  40.7407948  54.1193559  65.6207597  39.4225216  54.5459575
  22.6946863  41.9677639  19.8419039  22.7899293  41.3250714  20.5448313
  21.7755152  41.9044347  19.5823933  22.9828366  11.5839343   8.0920265
  22.4057809  10.8719609   7.8157432  23.2464307  12.0090000   7.2758959
  49.6964338  65.1839457  29.3657832  49.9685349  65.9238239  28.8228531
  48.8380985  65.4383483  29.7045628  73.1312177  29.3185106   5.4977423
  74.0292685  29.6124105   5.3449045  73.0561937  29.2631004   6.4503875
  23.0047608   1.8762867  65.2492599  22.4497510   2.0504277  66.0094381
  23.8364569   1.5836617  65.6219315  50.7747972  66.0816600  41.0788557
  51.1440138  65.7776973  40.2496889  51.5359919  66.3312309  41.6028107
  41.3875477  11.2711564  11.4606261  41.1239923  11.8786624  10.7694628
  40.7701259  11.4365449  12.1731350  58.7882723  15.8726692  14.8527223
  57.8391949  15.9680678  14.9326165  59.1151062  15.9721710  15.7468760
   4.2288782  22.7232736  49.9799079   4.8957512  23.3351890  49.6683444
   4.5831679  22.3802068  50.8002833  45.7074765   6.9829929   9.1791374
  45.9984319   6.1287314   8.8600542  46.2773098   7.1664654   9.9260374
  65.5774558  12.3254659   2.2691583  64.7528256  12.4943087   2.7249094
  65.3153468  12.0893389   1.3793410  69.7502151  57.7903543  68.1941640
  69.9571098  56.8807317  68.4086710  69.3421527  58.1367182  68.9877312
  44.9339860  32.4331767  33.3924785  45.2353443  31.5639318  33.6567289
  44.8228357  32.9086656  34.2157572  31.0384641  13.8894008  70.4615640
  31.2015048  12.9523859  70.5695113  30.1349476  13.9409370  70.1497406
   4.9586436  70.6730866  51.1992340   5.0043622  69.7398459  51.4070887
   5.6024149  70.7948628  50.5014082  63.2487049  62.6717297  47.0453666
  63.8736689  61.9926400  47.2993134  63.3741208  63.3664725  47.6917684
  81.2197519  26.5333434  19.1624667  81.5325877  25.7204872  18.7654397
  81.9538505  27.1411917  19.0738574  37.5416871  59.3982161  83.7149184
  37.3305413  58.8891066  82.9323222  38.0044181  58.7826817  84.2834509
   7.6076963  28.4951133  69.9906034   8.4474402  28.9534303  70.0223436
   7.3244427  28.4506314  70.9038507  40.5890005  67.9362612  29.7023185
  41.0612677  67.2880870  30.2248754  41.1393920  68.0687190  28.9304662
  55.2451935  50.9892958  13.6060077  55.9497981  51.3227407  13.0505090
  55.6659386  50.3279882  14.1554418  17.4288326  69.3432468  17.4758118
  17.9386277  68.9789441  18.1994307  16.8235029  68.6427199  17.2327689
  74.3881212  58.8484515  68.8930123  74.0598990  57.9609618  68.7485683
  74.4606820  58.9251012  69.8443754  85.0829896  52.3478618  28.2396701
  85.7806276  52.5783795  27.6261600  84.2750951  52.4737897  27.7419951
  42.4885001  41.9336340  70.8852873  42.5152710  42.8814123  71.0165557
  42.6658338  41.5667711  71.7514260  54.1104460  58.7583254   9.6251416
  54.3534884  59.6127164   9.2685212  53.1895831  58.6522919   9.3863942
  33.7814675  24.3096451   3.4585885  33.6141513  24.0848063   4.3738396
  34.0315436  25.2333353   3.4807273  46.2798141  59.4872121  46.3704998
  46.0871294  58.5500208  46.3983742  46.5459833  59.7036913  47.2641007
  78.7535183  51.1964474  60.6001278  78.0222720  50.7148607  60.9868897
  78.3615853  51.6878625  59.8782334  67.0170961  21.6638824  26.2743940
  67.1963135  21.8813246  27.1891791  66.9597270  22.5115695  25.8335231
   7.1172006  67.4529500  49.4736662   6.3927322  67.1540622  50.0232510
   6.6930820  67.8884927  48.7343031  71.1656360  49.0990596  80.3693295
  71.2518297  48.8042308  81.2759046  72.0646085  49.2626822  80.0841840
  52.7925793   7.3376097  42.2435156  52.3968015   6.4664594  42.2697620
  53.6296195   7.2341362  42.6961619  85.4864965  20.6918674  34.5445809
  85.5463182  20.0838226  35.2814220  85.9907301  20.2731480  33.8469747
  85.2641376  10.6076128  39.3608980  85.6259621   9.7288639  39.2463764
  85.6348814  11.1152376  38.6390269  50.8315800  33.5317883  72.4851233
  51.7040833  33.7330026  72.1467705  50.9888404  33.1915180  73.3658714
  27.0083385  47.3088312  17.5661082  27.0051109  48.2296890  17.8273403
  26.0865298  47.0515725  17.5839574  75.0704758   3.4036662  44.3748545
  74.7811389   2.7692628  45.0306352  74.5684015   3.1830641  43.5903241
  20.1896490  47.8691249  13.8065334  19.3222422  48.1688237  13.5344713
  20.1749791  47.9288333  14.7617567  72.5966030  57.5302697  47.1061775
  73.4053025  57.9169986  46.7705024  72.6007436  56.6349449  46.7676392
  72.3269316  22.7926980  57.8003153  73.0111102  22.6980279  57.1376170
  72.4258743  22.0214821  58.3585878  67.6025183  67.6814032  44.4459222
  67.1755071  67.4004938  45.2552325  67.7188550  68.6255948  44.5517515
  17.5096299  27.4965983  86.7442426  17.1189783  27.9499193  87.4913191
  17.4084868  28.1071366  86.0140065  83.0594901   7.0599491   6.7521447
  82.8937736   7.6610808   7.4783751  83.9794970   6.8143713   6.8496678
  58.1855144  60.2368090  54.3786289  57.2912628  60.3286851  54.7074218
  58.1624484  59.4461858  53.8395420  80.6898827  51.5053656  36.1392721
  80.0374400  50.9447213  36.5590677  80.6054147  51.3132937  35.2053528
   0.4342712  49.0273726  12.2094567   0.7167839  48.2192313  12.6376226
   1.2453968  49.5096406  12.0490675  83.2701678  49.2942234  85.6697299
  83.6313707  49.4738720  86.5377683  82.5574612  49.9255988  85.5715146
  34.8525607  60.9645119  77.9411131  34.1468821  61.3889555  77.4531611
  35.6183402  61.0436202  77.3722938  76.4628396  46.1838583  21.5999480
  76.3588658  45.4274942  21.0225966  75.5826571  46.5531100  21.6718069
   4.7910935  22.3792684  37.9911842   4.2732627  21.8721776  38.6164378
   5.2444965  21.7202235  37.4655251  42.4608858  51.6111232  39.9352634
  42.9627687  50.8152199  40.1110003  42.6626196  52.1888967  40.6712750
  46.7208908   3.9237652  13.5954050  47.1284823   3.7882260  12.7399927
  47.4456817   3.8658543  14.2179452   0.1992483  28.5664291  10.5863165
   0.0372247  29.3493783  10.0600364   0.4920041  28.9033661  11.4330746
  59.0849483   1.3843720  24.6461227  59.7251751   0.9873331  24.0556131
  58.2369902   1.0934405  24.3106264  15.2276619  25.3186123  88.7811246
  15.0266074  25.0221042  87.8934919  16.1499440  25.0945665  88.9053461
   1.5845963  52.7791279  62.3056000   2.4439403  52.3959179  62.1297886
   1.0733131  52.5920411  61.5183136  21.7791984  10.1374728  37.6444270
  21.5243608   9.6795959  38.4454504  22.7242665   9.9998073  37.5801897
  65.2967071   3.6493031  35.4244220  64.6226821   3.0065986  35.2033946
  65.5447601   4.0348459  34.5841493  21.1422760  19.2941573  81.7681902
  21.0614643  20.2467323  81.8161715  20.4060876  19.0185383  81.2220284
  54.4468977  40.3267668  22.4068760  54.0404302  41.1435827  22.1173457
  53.8249675  39.6457662  22.1506088  71.6984710   9.6950867  46.5191535
  72.2206328  10.4900812  46.4116236  71.3296288   9.5315603  45.6511406
  68.4249843  44.0524991  64.5227530  68.8382810  43.5710336  63.8060881
  69.1484845  44.2811674  65.1062683  15.8416296  51.9578093   6.6260719
  16.3517213  52.7664999   6.6714339  15.7284092  51.6944996   7.5393522
  69.5148608  24.7095935  47.7759961  70.2818756  25.2747637  47.6837847
  68.7787036  25.3161091  47.8562657  16.9025571  51.8655922  72.5865262
  17.6704758  51.6815036  72.0455604  16.7225456  52.7940414  72.4388451
  61.3338311  15.4597979  21.0716391  60.4784499  15.0682443  20.8948886
  61.9148856  14.7123135  21.2126162  53.5255284  31.6652511   7.1955946
  54.2646397  32.1731876   7.5301792  53.8401197  30.7612581   7.1878009
   5.1859914   0.2952814   8.9987287   4.7928322  -0.4676124   8.5748764
   5.8137962   0.6284705   8.3575751  72.9183319  47.5991760  65.5248756
  73.1738692  48.3813104  66.0139548  73.6086675  46.9631951  65.7124841
  43.3999132  16.7431388  70.9249706  42.6479884  17.3035838  71.1166534
  43.9399027  16.7886872  71.7140007  73.9575762  10.4792333  15.8479730
  73.1797739  10.9399729  15.5333709  74.2889333  10.0158012  15.0787754
  71.6908200   6.9520882  37.5660893  72.1501608   7.7172754  37.9121044
  71.1079667   6.6815487  38.2755414  75.2476660  37.1155999  11.1973520
  75.7996090  36.5598670  10.6471232  75.3876927  36.7876934  12.0856659
  70.2909040  23.7256584   4.7749879  71.2195080  23.5056596   4.7006439
  70.1711137  23.9503152   5.6977075  70.3362623   9.0997515  57.0255593
  70.5472479   8.3013617  57.5095950  70.6371913   8.9257342  56.1337120
  47.2019904   9.8512867  19.5065716  47.0677955   8.9868954  19.8952247
  48.1434207  10.0055775  19.5848989  82.2753218  24.1615731  61.7186874
  82.5841696  23.3972373  62.2051396  82.2795058  24.8716944  62.3605146
  36.2958784  68.3988528  71.4280896  36.0019409  69.1184976  71.9866090
  37.1302606  68.1253240  71.8091672  65.6287863  39.6548406  19.2379053
  65.2290166  39.5084231  20.0952138  64.8872824  39.7886984  18.6475784
  64.1998206  15.1649803  14.6481951  64.2451073  16.0970211  14.4349327
  64.9227804  14.7719872  14.1591988  48.6272721  47.4047129  73.1873079
  48.0891718  46.9026042  73.7993265  48.8007328  48.2291771  73.6416229
  78.4441754   1.0661320  19.1051720  78.4490987   1.6966667  19.8253342
  78.1276821   1.5651037  18.3521175  74.3238019  37.5799819  55.0743235
  74.6323728  37.6288062  54.1695407  73.8220682  38.3853922  55.2000595
  54.3679159  32.6380941  15.4813162  55.1081141  33.2018545  15.2565657
  54.6736985  32.1293091  16.2322268  39.3293012  65.7698610  79.0549348
  39.9798518  65.0833003  78.9077953  39.8416837  66.5306345  79.3286493
  20.5715700  26.8051799  16.5639500  20.1058968  27.5719417  16.8978013
  21.1868188  27.1593907  15.9218944  28.1809974  42.4275461  24.5721647
  28.1635910  41.5790221  24.1295182  27.7870790  43.0333081  23.9443809
  70.5835764   8.2681916  33.3552485  71.4556309   7.9211435  33.5431593
  69.9882547   7.5512042  33.5737730   4.7146603  31.2085463  26.2901771
   5.6005248  31.4999667  26.5059319   4.6376483  30.3491437  26.7045779
  12.1356521   7.3130802  68.9870189  12.6278616   6.8318292  68.3219181
  11.6732722   6.6352709  69.4799806  64.4930209  42.9780748   1.2864233
  65.3257877  42.5563305   1.0746145  64.7077413  43.9078358   1.3617325
  57.9895908   4.4792642  88.4498411  58.4602321   3.8006336  87.9659101
  58.0392923   4.1997056  89.3639574  13.2599746  38.1522416  34.9222360
  13.9785900  37.7138211  34.4665923  12.5313174  37.5336051  34.8714493
  54.6408447  65.7750598  57.4046654  54.2848817  65.2717852  58.1369474
  53.8703835  66.0640537  56.9156829  36.7507262  40.4967755  11.9662016
  35.8341505  40.5138280  12.2415743  37.2292217  40.2100950  12.7440758
  31.5764105  54.1564688  48.3149029  31.2719025  54.5729930  49.1211376
  32.4297315  54.5560673  48.1463912  21.2489487  68.4978239  10.7328419
  20.9960793  69.3905779  10.4977265  22.2053242  68.5205007  10.7654529
  84.9759081  54.3764872  65.9025806  84.3231716  53.6820869  65.9918837
  84.5893672  54.9895826  65.2773350  79.2919556   0.4560455   1.6929190
  79.6921210   1.1451426   2.2232441  78.5771658   0.1215553   2.2346050
  49.9758419  43.7231041  65.8139351  50.5764668  43.6822683  66.5581219
  49.2457852  44.2586547  66.1244744  80.4561026  18.7935986  33.3552994
  80.7479583  18.8956365  34.2611914  81.1062714  19.2700796  32.8390842
  21.9173602  36.3187281  15.5164563  21.8563330  36.3267896  16.4716749
  21.2132154  36.8987073  15.2265666  53.8752643  63.5201697  13.2163653
  53.2333978  63.1064648  13.7935026  54.5054072  62.8262174  13.0225042
   1.4488346  52.3853152   9.7925032   2.3445691  52.7034567   9.6799091
   1.4633561  51.4973839   9.4352934  79.6125302  10.8927349  51.8215074
  79.0901183  11.6706482  51.6261398  79.5306351  10.7808853  52.7686160
  37.2145172  69.8925330  46.2373022  36.3400824  69.8409148  46.6232183
  37.4651294  70.8112712  46.3339738  46.7486116  38.1284508  19.1481339
  46.0746047  37.7981566  19.7421477  47.4920786  37.5398050  19.2784592
  61.5176084  15.7337263  25.2480042  60.8806865  15.0573679  25.4784421
  61.2587264  16.0177991  24.3713546  60.6347191   1.8359901  66.1314766
  60.3770045   0.9285163  66.2936688  60.8958653   2.1679846  66.9904376
  72.3455881  52.2297129   2.7046001  73.0310397  52.8609952   2.4858067
  71.8899792  52.0744919   1.8772194  59.7546500  47.3561651  20.1382950
  59.0879644  46.8123684  19.7187152  60.5862819  46.9947554  19.8316956
  80.2175210   8.1148404  54.1490829  79.5773421   8.6416263  54.6275174
  79.9188700   7.2126659  54.2636276  83.2701786  56.1948323  64.4926145
  82.5673681  55.6130625  64.7821542  83.0340562  57.0513801  64.8487098
  73.9241766  13.0468374  18.4738927  74.4226074  12.2340236  18.5583452
  73.0083711  12.7718616  18.5177161  19.6524392  69.7826174  31.4163399
  19.3060103  69.8759283  30.5289212  20.3816012  69.1691772  31.3255341
  15.1961269   0.0762358  71.4195763  16.0277064   0.5092958  71.2267902
  14.9979924   0.3287525  72.3213578  21.0218444   4.8340115  52.5526227
  20.2196696   5.2973851  52.7935216  21.6627776   5.5283098  52.3996967
  27.6501444  57.8675478  66.6672677  28.5717315  57.6712269  66.4988421
  27.4007201  57.2640462  67.3671285  28.7808500  57.0007390  19.4142694
  29.1701838  56.8054582  18.5619101  28.2255188  57.7638835  19.2547405
  69.1569014  70.7003498  70.6580752  69.0531676  71.6515371  70.6313548
  68.8745200  70.4042198  69.7927432  33.0209143  61.4407796  75.6928372
  33.2156089  62.3482761  75.4587948  33.4235593  60.9221382  74.9963317
  75.2645078  15.2311614   5.4996045  75.0322004  14.8001124   4.6771315
  74.8320903  16.0838802   5.4535858  78.8787797  10.0666301  20.2760171
  79.0640271  10.4633220  19.4248116  78.3593003  10.7241157  20.7387110
  23.6791136  19.4993285   4.9914447  23.8652398  19.1057775   5.8439155
  23.7829362  20.4401175   5.1341637  59.6186816  13.0469241   1.3031772
  60.2164840  12.3128207   1.4444440  59.9161394  13.7193813   1.9160002
  36.5571530   2.9067586  81.2330221  36.9840579   3.0332618  82.0803596
  36.0537120   2.0992689  81.3366535  56.5229741   6.2356873  69.4462452
  56.9191242   5.7942821  70.1975497  57.0376591   5.9393110  68.6955840
  35.7661971  53.7712273  22.5902430  35.7923362  52.8450419  22.8305120
  34.9829839  54.1092920  23.0244333  46.1855151  48.2000272  80.0097509
  45.8082735  49.0778198  80.0680669  47.0180629  48.2655701  80.4775115
  31.1722845   3.5934869  43.8075916  31.8378076   3.9640370  43.2279336
  30.3396724   3.8443968  43.4075501  80.9786585  11.0756028  40.5158820
  80.3359429  10.3681078  40.4648977  81.3221081  11.0233701  41.4078158
  29.7436375   2.4943026  61.4397404  29.7563332   1.5491064  61.2891587
  30.4916338   2.8260302  60.9430613  46.0328849  45.1835868   7.1970547
  45.6041994  44.3291485   7.2460009  46.1443249  45.4482992   8.1101485
  79.7467364  12.0362041  43.3509224  79.7661192  12.9875998  43.4543741
  80.6683598  11.7781191  43.3356172  71.0934576  35.4297945  85.7748092
  71.5519856  35.9288591  85.0988518  70.5883605  36.0855666  86.2555083
  34.3647525  53.0879845   2.4370579  33.4453399  53.1112489   2.1717825
  34.7068824  52.2845476   2.0450524   0.5454891  63.0171610  12.9898306
   1.3322229  63.5016892  13.2398589   0.5031715  63.1041207  12.0375286
   7.3315102  43.8473077  67.9648432   7.6532205  44.1366439  67.1110172
   7.0191379  42.9552806  67.8133738  63.8699717  16.6026601  29.9569267
  63.7014572  16.0978677  29.1613016  64.2094865  17.4402833  29.6417301
  65.0919066  52.7373679   1.8853450  65.7855330  52.9516490   2.5092023
  64.3018431  52.6655360   2.4209490  51.5467632   1.3775801  69.5458994
  51.6660049   0.9757402  68.6853543  50.6738415   1.7685561  69.5087860
  76.7851517  11.0275404  86.5876986  76.3561279  11.8762492  86.4787772
  77.6221811  11.1221901  86.1331054  44.5882147  44.3623977  67.8814458
  44.2519871  43.9195867  67.1022788  44.2783999  43.8283288  68.6128944
  14.7661878  33.9154137  20.4083564  14.0489019  33.8333693  21.0368479
  15.4661426  34.3465255  20.8987009  80.6484015  17.0174261  75.4368943
  80.7010199  17.4474967  74.5833708  80.8347491  16.0967133  75.2530615
  83.2288077   1.6157846  48.6824185  83.2406679   2.2368489  49.4106839
  83.1697737   2.1646926  47.9004678  69.9469400  43.7097246  61.9544986
  70.8623268  43.4835028  61.7898093  69.8108350  44.5244845  61.4708940
  85.2508663  68.5581939  81.4897970  84.9063729  69.4505928  81.4554416
  84.7163845  68.0708284  80.8628712  69.8126246  55.6133627  11.4918533
  69.0230725  55.1935823  11.1503511  69.8286262  55.3752862  12.4188352
  70.0291586  39.4171226  20.2883789  69.4369140  39.0398169  19.6379033
  70.8902977  39.3922977  19.8711800  14.3437027  37.9650560   4.6110639
  14.4899391  37.4732092   5.4191069  13.8556626  38.7406194   4.8877410
  46.8007444  71.8973755  59.9340710  46.8153201  71.5294169  60.8176014
  47.1709550  71.2088317  59.3817275  54.1103298  30.6531968  41.7440545
  53.4232020  31.0196073  41.1874303  54.0636438  31.1658650  42.5510387
   1.9142025  12.7886132  23.6021556   2.0049920  12.3799995  24.4629831
   0.9806016  12.9864890  23.5282212  17.2281635  31.9511168  84.2222925
  18.1566360  32.1250100  84.3769923  16.7983460  32.7928597  84.3738105
  55.6717282   0.4183136  67.1479296  54.9060249   0.2740019  67.7039012
  55.7912033   1.3680272  67.1466286  62.1499536  42.3983079  17.1970878
  62.6587209  43.1883420  17.3793896  61.2389934  42.6675733  17.3148995
  12.3567304   2.5876237   5.2675271  12.0386045   2.1310827   4.4886830
  12.3783107   3.5099516   5.0124246  59.4684084  29.3837634  79.4046278
  60.3514904  29.2880265  79.0479312  59.3030527  30.3263682  79.3849920
  56.7761914  64.7256730  16.2975292  55.9901567  65.2451687  16.1286933
  56.5830666  64.2558110  17.1088025   7.0034955  51.4532407  61.4352992
   6.9610237  52.3894094  61.2403221   7.8901972  51.3182009  61.7695989
   3.0653437  37.4723096  48.6488367   3.7346068  37.1089042  48.0689615
   2.2402281  37.3171903  48.1891040  31.8432661  25.8053364  87.7448924
  32.1693928  26.4896083  88.3293966  30.9002073  25.9617271  87.6957605
  25.4181459  55.0212755  29.0071698  24.9545657  55.3262051  29.7871333
  26.0330896  54.3651872  29.3352312  60.1861266  50.9206097  32.9104060
  60.0041567  51.3479442  33.7473672  61.0808225  50.5920599  32.9987588
  18.3055639   4.0342310  32.0466283  18.1834223   3.7414445  32.9497282
  18.5351483   4.9602603  32.1240395  25.1335712   3.8263409  27.7824369
  24.8139329   3.0316304  27.3552386  26.0395637   3.6246636  28.0163933
   9.0210885  38.0098447  69.2088702   8.0795565  38.0158410  69.0364945
   9.4213009  37.8840306  68.3485024  65.8974262  42.5362173  75.8032781
  65.4668904  43.3485662  76.0696611  66.8166008  42.6642823  76.0376906
  20.7886657  71.4829028  87.4664104  20.3392493  72.3278364  87.4849589
  20.1096367  70.8558594  87.2174768  45.7050990  35.0551762  82.5140923
  45.2868564  35.6022402  83.1789426  46.3028778  35.6474773  82.0579434
  60.3788540  15.5762352  33.3900379  60.4767705  16.1914062  34.1168176
  60.4743551  16.1156859  32.6051148  52.4352132  27.2519724  22.4247841
  51.6971464  26.7267999  22.1154571  53.0072533  26.6243909  22.8665347
  28.4553953  54.5161779   4.1887412  28.5407698  55.4684224   4.2353609
  29.3393426  54.2057774   3.9924744  79.4019543  64.2961088  28.3990917
  79.4610417  64.5764329  27.4857687  80.2936159  64.3859928  28.7353837
  65.4848553  56.8278149  83.0934892  66.0306976  57.6129105  83.0497525
  65.2032619  56.6812715  82.1904598  78.1795431   9.6023657   1.9859678
  78.5851011  10.4448246   2.1909500  77.8279803   9.2960748   2.8219231
  53.0309568  46.6551684  54.4031382  52.1456501  47.0190957  54.4077037
  53.1304854  46.2782911  53.5289018  79.5382252   0.4896150  57.7657813
  79.8845604   0.0216388  57.0059905  79.9599962   0.0722215  58.5168630
  18.9059852  51.3127287  81.3446320  19.2307799  50.9762183  80.5094667
  18.9466987  52.2645144  81.2514748  15.9779794  41.2822621  85.5166372
  16.5364800  41.0385021  86.2548038  15.5928822  40.4560431  85.2245856
  83.8640752  10.2555233   9.8813788  83.7146662  10.7642102  10.6783395
  84.8162409  10.1774891   9.8220239  18.4760970  23.0990393  20.5734204
  18.3495750  23.1562448  19.6263452  17.6750753  22.6873600  20.8976367
  15.6759438  42.5466547   3.8991501  15.3138625  42.3406856   4.7609539
  15.0707110  43.1915026   3.5329585  80.1928466  55.3265231  83.2301323
  79.4264094  54.9032338  83.6169552  80.1194699  56.2433282  83.4953042
  37.5683389  35.6817120  76.8606683  38.0001827  36.3198797  76.2927909
  36.9061479  35.2739461  76.3025806  15.8318243  62.8382261   1.4231571
  16.7107323  63.2173619   1.4202330  15.6530716  62.6408247   0.5037486
  53.1778541   1.8967769  41.4842837  53.6043419   1.0760110  41.7306236
  53.7325871   2.2566290  40.7921785   5.0818575  39.0891928  83.5426306
   4.4898869  38.4868266  83.9931388   5.2387573  39.7893973  84.1761350
  84.9358873  68.7509442  35.1190674  85.1591482  68.7025350  34.1895283
  84.0328490  68.4368922  35.1651661   1.2330835   8.2730389  74.9078431
   1.4530213   9.1456969  74.5817646   0.7477052   8.4349346  75.7168113
  42.1781795   0.6753123   6.6332632  43.1070632   0.4445838   6.6463543
  41.9867056   0.8457750   5.7110311  63.1938972  36.5208302  36.4863899
  62.7663519  37.3280344  36.2002810  62.5050138  35.8574964  36.4456491
  67.8630375  71.1329318  26.9087589  67.0649181  71.3751089  27.3784264
  68.5330341  71.0735395  27.5897940  66.1898846  35.9895267  19.4894257
  66.4685285  35.1331028  19.8136595  67.0029197  36.4856000  19.3939425
  45.7434102  59.7008498  54.1477881  45.1001471  59.3332242  53.5417387
  45.8629225  59.0214229  54.8113601  30.9687247  58.1576779  86.1711435
  31.8744360  58.2797826  86.4557647  30.4975285  57.9163306  86.9686129
  65.2425165  19.5461381  25.2344216  65.8992900  20.2050640  25.4595817
  64.4851819  19.7679539  25.7761539  74.7868587  45.1428355  18.4280446
  74.9738954  46.0782676  18.5068852  75.5190187  44.7942205  17.9194768
  17.8994623   8.0614427  11.7012307  17.0030459   8.3808595  11.5980685
  18.0385698   8.0398744  12.6480230  19.7134756  48.2274730   1.8194339
  19.7110365  49.1834896   1.7719122  20.6381443  47.9871068   1.7607507
  35.4603475   7.2806021  38.6372403  35.6054657   6.5584250  38.0259851
  34.7674307   7.8019248  38.2318752  65.9418999   8.7420817  52.5868225
  65.9714433   7.8032871  52.4023670  66.8514868   9.0300668  52.5096984
  64.9091976  35.0800635  11.7137000  64.1002295  35.0306823  12.2229778
  64.8737525  35.9378482  11.2904023  63.5812401  47.2592363  14.7036303
  63.4213513  46.3364367  14.5058721  64.2159240  47.5390671  14.0440070
  68.1779827   6.0308076  85.6120784  68.2739276   6.3766883  86.4994301
  68.8593384   6.4745899  85.1070601   5.5382760  64.4657422  68.7980506
   6.4192446  64.8108170  68.9431355   5.0801761  64.6238205  69.6235126
   4.2197212  21.8251879  81.2792247   4.4328932  20.9846524  80.8738981
   4.5433355  21.7472409  82.1766821  39.0313717  47.9807282  72.6279591
  39.9610074  47.7825787  72.7408577  38.8268933  48.5850087  73.3415875
  59.0579987  27.4716620  83.3216998  59.5183316  26.6388782  83.2177928
  58.9006885  27.5425266  84.2632218  47.7405141   0.6388303  88.5045095
  46.9443463   0.7027950  87.9770086  48.4473016   0.8644626  87.8997175
  58.7363698  -0.1281797  55.2098392  59.1504707  -0.1927415  54.3492672
  58.6659689   0.8125901  55.3717893   3.0081896  64.3813938  11.1137281
   3.8739405  63.9925687  10.9891397   3.1762859  65.3205469  11.1909729
  74.6217231  11.5203930  41.0715490  74.7875544  10.6521146  40.7043646
  73.8887577  11.8612414  40.5588932  24.3756302  38.5314161   3.6638198
  24.1859029  39.4643893   3.7627966  23.7479444  38.0967896   4.2411777
  36.1738693  55.4146638  83.8459965  35.6252741  56.1334136  83.5318724
  35.9726297  54.6856564  83.2592404   7.8703623  12.4382606  64.7248230
   7.5987169  12.3923601  65.6415202   8.7821420  12.1469544  64.7303308
  78.3192709   4.2819772  23.6221016  78.3830344   5.0605895  24.1752100
  77.6129020   4.4817598  23.0078039  76.9213762  14.5387153   2.0581784
  76.4391778  15.3655307   2.0485376  77.6960903  14.7069921   1.5217711
   5.1299706  68.2388463  38.9575446   4.3710698  68.3697320  38.3890638
   5.4816706  69.1185922  39.0938752  69.7670577   9.4857913  24.3944283
  70.4304334   9.5277411  25.0831987  69.7076412   8.5558752  24.1754361
  56.8907899  28.4934452  33.2844877  56.9859109  28.9876425  34.0987068
  57.7310244  28.6018374  32.8389667  16.1043456  59.9951199  73.4681719
  16.4683381  60.8595522  73.6592166  15.3602333  60.1705295  72.8921856
  18.9568084  33.3262540   7.4881261  19.8116531  33.0814405   7.1338114
  19.1596531  33.8329645   8.2744659   8.8113840  38.7060002  30.3404478
   8.2737596  37.9405070  30.5434551   9.5100912  38.6882165  30.9944538
  41.1999982  43.8633442  72.9406223  40.8128397  44.2550112  73.7235253
  40.7840634  44.3237705  72.2117618  66.0978619  60.1044675  55.2723460
  66.8083870  59.8440389  54.6862036  65.5117581  59.3478755  55.2891633
  83.3113234  67.1284821  11.0542352  83.8990779  66.4906041  11.4590662
  82.6941457  66.5988476  10.5494473  38.3083956  61.7492796  73.1605759
  38.1496686  62.6072910  73.5540908  38.6567669  61.2181172  73.8766316
  13.4259313  43.7072247  48.3124884  13.6538160  44.5149329  48.7728230
  12.7287588  43.9640406  47.7089753  44.1301646  15.4873639   3.9748869
  43.8031080  15.0541097   4.7632755  45.0488156  15.6744830   4.1680155
  56.2360273  59.6950513  86.9062562  55.5059356  60.2816779  86.7086016
  56.4350202  59.2706933  86.0716581  23.7837680  64.5624815  69.0257775
  24.3241406  63.7761080  68.9493185  23.8710770  64.8249207  69.9421479
  60.1975288  48.4128305  30.3774298  60.1188199  47.6705325  30.9766214
  61.0341058  48.2744880  29.9333215  78.4504708  16.5972582  65.1985875
  78.1146571  17.2622860  64.5975892  79.3129992  16.3726381  64.8495570
  74.0363704  63.7752998  10.4086990  74.7338580  64.4040156  10.5943308
  74.4732200  62.9236371  10.4167575   2.1674255  47.7786693  72.2231357
   2.1055372  47.9473510  73.1633209   1.7659451  46.9174820  72.1073701
  66.2424257  10.2429274  30.4727024  65.5805322  10.9306111  30.4004529
  67.0697575  10.7154978  30.5645239  33.6928231  64.2347103  11.5871381
  33.6126595  64.3306981  10.6381429  32.8251224  63.9491710  11.8731358
   3.0024219  41.2062771  68.7658175   2.0739632  41.2684152  68.5414623
   3.4600802  41.4507215  67.9614372  50.4891694  32.7734008  76.1185818
  50.4023529  32.3546926  76.9749569  51.4252619  32.9547316  76.0344275
  83.4912579  33.4297824  75.9376951  84.3806247  33.6224962  76.2345452
  83.4450505  33.8067796  75.0590770  49.9639221  61.8544303  39.4573432
  50.2268155  62.3685047  38.6938994  50.2146426  60.9567064  39.2394837
   3.0606837  53.4733954  49.6809522   2.2796977  52.9323238  49.5646159
   3.1738243  53.9147958  48.8391703  77.7346571  25.6602268   1.0316461
  77.5733303  26.5875370   1.2057188  76.8827267  25.3148605   0.7648717
  83.6637124  25.1538046  39.2040791  83.1862008  25.6619913  39.8597931
  84.4766333  24.9015183  39.6419639  67.6808938  70.0182807  15.2189488
  67.6690236  70.5627613  14.4317819  66.9237938  70.3126964  15.7252598
  55.5019361  34.4486301  74.7387119  56.3354876  33.9790013  74.7091718
  55.5926793  35.0514461  75.4766892  10.7297020  47.1507856  62.6479685
  10.5136541  47.5898648  63.4706256  11.2572245  47.7887120  62.1673421
  57.8103475  27.5607182  49.6867215  58.7303865  27.7974952  49.8037546
  57.5249280  27.2729047  50.5538610  29.0821653  59.7640235  85.4296760
  28.6815330  60.1598683  86.2036479  29.7521017  59.1771558  85.7803943
  51.7393929  15.0940937  48.0754429  50.9210359  15.4027678  48.4643439
  52.4062492  15.2902137  48.7335246  76.7038310  20.5532814  73.7731818
  77.0592839  19.6653463  73.7350178  76.1305278  20.6148145  73.0091341
   1.5976773  23.0596759  50.4286298   2.4814362  22.7657844  50.2076550
   1.6727811  23.3934287  51.3226099  81.4438796  35.4707067   7.6492951
  80.9786906  35.7981800   6.8794949  80.7513565  35.1698195   8.2376066
  76.9461722  17.4309095  73.7505617  77.2081976  17.5976597  74.6559726
  76.0288313  17.1645324  73.8118868  69.3272088  14.3343436  50.5535386
  69.1528322  14.9725132  49.8617552  68.4682785  14.1550664  50.9360698
  80.6625836  56.4323065  36.3009207  80.9068079  55.5210325  36.4626796
  79.7273691  56.3975702  36.0999253  61.8150233  18.9002295  12.7544128
  62.5882430  19.3391091  13.1090223  61.3436084  18.5852520  13.5256384
  17.4962051   6.9909746  79.7752627  16.9211858   7.0367578  79.0113984
  17.8279434   6.0931049  79.7718555  22.5235735  51.2579962  21.2310776
  21.8144038  51.2450433  21.8738392  22.0799261  51.3358991  20.3864831
  50.5380308  54.7575488  42.1368320  51.4100509  55.1286400  42.2713835
  50.5535633  53.9293375  42.6164742  51.6732779  43.3721184  24.4216107
  51.8343317  44.2503315  24.0765958  52.0264408  42.7840333  23.7540302
  67.1613701  71.8252830  33.3884600  66.5155044  71.1191439  33.3670877
  68.0045066  71.3768135  33.4534819  56.0834632  45.4416093  29.2940150
  56.1813705  45.2986507  28.3526283  55.2005413  45.7982095  29.3915701
   2.2805880   7.9024873  66.6546406   2.0445414   8.8297254  66.6273764
   2.0980767   7.6352624  67.5554804  42.2091342  69.0210919  50.0419462
  41.3469669  68.6657879  50.2579520  42.0422042  69.9375408  49.8217471
  29.0880065   3.5647398  63.9527052  29.2282050   3.1760971  63.0892627
  29.7474787   3.1526104  64.5108069  59.7904534  26.7568247  46.5969774
  59.9555649  25.8915546  46.2224406  58.8382650  26.8512103  46.5712772
  52.1813700  69.6847607  62.2597014  52.8325397  70.3562736  62.4628770
  52.2764036  69.0392816  62.9600993   6.2930041  60.4784685  81.8176727
   6.8091266  60.2115526  81.0570116   6.5348990  59.8545735  82.5021241
  31.4117012  10.4542630  13.8692035  31.9471726   9.7360504  14.2063576
  31.7332972  11.2293840  14.3296328  18.2868158  47.0054622  41.7487848
  17.9871406  47.1574594  40.8525017  17.8290244  47.6653590  42.2695487
  69.7914550   6.3583234  62.4706951  70.0792820   7.1200525  61.9675487
  69.0503766   6.6775044  62.9856302  18.9890030   5.7608732   7.6837107
  19.0238966   4.8060772   7.7418378  18.1130798   5.9879779   7.9958226
  40.2894420  33.8211960   0.9538161  39.8923446  33.0155362   0.6229720
  40.2920073  33.7138989   1.9049799  68.8100186  67.2989156  31.8993574
  68.9882954  67.9505651  31.2212703  69.5203845  67.4102324  32.5311965
  74.7891103  19.4654553   6.2037633  75.7188485  19.2572355   6.2957591
  74.3996669  18.6685624   5.8438642   2.8148119  20.9993618  69.8495147
   2.8386575  21.5398218  70.6391769   1.8929413  20.7618845  69.7495592
  19.9841520  34.7312022  81.7716117  20.1045509  35.4870403  82.3464549
  19.5959660  35.0949287  80.9758438  20.1201632  64.7907277  25.5102547
  20.9710121  65.1986496  25.3493579  20.2271053  64.3349583  26.3451616
  60.3340317  48.4948181  82.5411391  61.0987113  48.1527243  82.0780313
  60.6157045  49.3481109  82.8709628  53.3756734  14.0719017  65.9962443
  54.1343315  14.6526071  65.9375005  53.0076743  14.2455200  66.8626537
  49.5425306  31.4247681  83.4997858  48.7174895  31.4688499  83.0164683
  50.1514154  31.9522875  82.9828579  77.1727512  45.8473525  15.5638606
  77.8938919  45.9027923  14.9368722  76.4148048  45.5969533  15.0356093
  26.7208685  21.2337701  23.4717685  27.1056635  21.7093415  24.2079726
  26.0018210  21.7919040  23.1756451  73.0571238  50.9874646  62.4187926
  72.3314802  50.9447681  63.0415688  72.6346404  51.0158359  61.5603436
  55.8039279  54.7726251  62.4999487  55.8465169  53.8213339  62.5972272
  56.6765185  55.0780557  62.7480004  25.0160583  56.2098824  74.2933857
  24.5946551  56.7706323  73.6420710  25.9030273  56.5607226  74.3735661
  17.9440796  70.1357238  67.8497623  17.6010862  70.0784161  66.9579646
  17.2771027  69.7127274  68.3905467  54.7029178  57.6887996  52.5550454
  54.6398819  57.5937054  53.5054219  55.6184957  57.9193729  52.3976129
  73.4169573   2.4251201  18.8895191  73.0018719   1.6012492  19.1448087
  73.6392600   2.8483535  19.7187879  16.0477895  60.4983967   3.0458861
  16.8798027  60.7237726   3.4620490  15.8250492  61.2686965   2.5231464
  49.6231003  53.5342377  17.8780390  48.8037416  53.9538168  18.1404062
  50.2697151  53.8585816  18.5048740  43.7667248  33.4788493  26.6355082
  43.3265344  32.7873148  26.1412975  44.6882542  33.3999965  26.3889365
   3.9124231  25.7415660  81.2319760   3.0408049  26.1358851  81.2640060
   3.9780891  25.2393332  82.0441841  34.3634298  63.0150634  58.9920190
  33.4614446  62.7225191  59.1226807  34.3143109  63.9699751  59.0363236
  75.5485364   5.8953154  42.9038976  76.4775664   6.1254875  42.9163818
  75.5014894   5.0635977  43.3753467  16.0929122  40.5107778  73.1143687
  15.2997634  40.5883605  72.5841539  16.8098303  40.6365761  72.4927296
  68.5821743  27.1859218  42.3406316  68.5811805  28.1410376  42.4037554
  68.6334809  27.0080074  41.4015118  66.1637656  46.3780649  50.3877338
  65.8758421  46.3327804  51.2994800  66.1462910  47.3116458  50.1771321
  75.2974382   6.7258300  15.4762320  76.1737534   6.5521444  15.8199424
  75.2617534   6.2377820  14.6535731  15.8588945  50.4884546  63.3086085
  15.3031425  50.3956571  64.0824045  16.1612992  49.5994673  63.1229078
  82.0434434  55.0688573  59.3630017  82.4833637  54.5707461  60.0519046
  82.1264964  55.9820890  59.6374869  57.5567462  28.2603802  36.8615087
  58.0674869  27.8530469  37.5611196  56.6513442  28.0149579  37.0518950
  73.0362054  56.1853107  68.7053072  72.3738093  55.5393070  68.4600679
  72.6807433  56.6078641  69.4871814  65.1893840   4.4603825  38.2718978
  65.1872930   4.2144591  37.3468307  65.9386886   3.9937599  38.6420842
  62.1442535  62.9593015  54.9264315  62.4467206  63.3566794  55.7430319
  61.2028795  63.1318961  54.9103756   4.7322857  11.5393886  61.3355707
   4.8037350  10.9221062  60.6074984   4.9839775  11.0307515  62.1063959
  36.3063692  36.0452588  83.1907469  37.2445585  36.0101627  83.0041968
  36.2520722  36.0464441  84.1464050   4.1844684  24.8533657  43.5354244
   5.0695891  24.4980080  43.4547153   3.6988716  24.1805978  44.0127199
  79.5058026  68.0561947  41.7418541  79.1261746  67.4308453  42.3591486
  80.0285399  67.5183787  41.1471008  13.8182584  48.0998176  14.6012427
  13.1610976  48.2998664  15.2678400  13.3270208  47.6671438  13.9028797
  83.6097762  29.8498029  60.7991643  84.2667444  29.4286941  61.3535036
  82.7762031  29.6612445  61.2302483  24.2248120   5.4722527  24.8331409
  25.0932950   5.0705808  24.8080657  24.2025931   5.9429655  25.6663081
  42.5321605  24.8168936  82.4913406  41.6244646  24.9605792  82.7590615
  42.9998267  24.6506750  83.3098096  34.9439949  35.9981051   6.8087150
  34.4574994  35.6121429   6.0803008  34.6210364  35.5375421   7.5831898
  35.2376657  53.3560643  57.3547537  36.1053428  53.6465732  57.6357749
  34.7636873  54.1658090  57.1653073  46.0695017  35.0262373   5.5905210
  45.4640634  34.4786481   6.0903433  46.8270406  35.1325352   6.1659056
  16.0597717  64.6474008  13.4432818  15.4320419  64.0115668  13.7866508
  15.7530373  65.4907025  13.7764306  28.6806739  47.9538158  38.9607168
  28.9643564  48.8678875  38.9455839  29.3173634  47.5147434  39.5246971
  48.3877794  38.9692412  79.9350444  47.4554932  39.1454448  79.8084481
  48.7875590  39.1764841  79.0903797  40.3813993   9.1774221  13.7971191
  41.3021843   8.9431946  13.6808246  39.9266589   8.7195786  13.0901380
  26.0403551  62.5562329  67.3065521  26.7201045  62.0901964  66.8197435
  26.5199642  63.1878318  67.8425462  72.3781764  45.0002500  70.1887399
  72.0546938  44.1166837  70.0129520  72.9090081  45.2178230  69.4225078
  84.2473179  70.6552613  67.8605729  85.0886622  70.2026201  67.9196291
  84.4538615  71.5704340  68.0503897  57.0471526  31.2006069  68.1291755
  57.6969370  31.1985540  68.8320324  56.7323946  32.1039891  68.0966209
  40.5939549  63.2066900  43.6522509  40.8187920  63.9734440  43.1252135
  39.7700216  63.4423819  44.0786486  76.0097357  60.2210268  60.0364556
  76.2146364  60.9555319  60.6150313  75.6130438  59.5666263  60.6114577
  12.3574651  35.0197573  25.5051953  12.3251977  34.5183374  24.6904753
  12.3871279  35.9338784  25.2228223  23.5902589  36.6135047   1.4019486
  23.3767778  37.5377635   1.5300245  23.5464870  36.2337428   2.2795002
  27.1248138  24.5362290  84.3196303  26.4647688  23.8484653  84.2327192
  27.8963043  24.0857467  84.6632869  28.2962736   8.9757722  78.0227500
  28.4198981   9.6523661  77.3570402  27.7758167   8.3018337  77.5855276
  63.8320251  36.0130055   3.4783637  63.9870849  35.2116806   3.9784305
  62.9015808  36.1983630   3.6054378  27.5383873   4.0983879  10.8792629
  28.4454183   3.8124990  10.7706628  27.5114949   4.4820165  11.7558117
  28.3044148  13.8878208  38.9190438  28.2365534  12.9673990  38.6651729
  27.7849689  13.9542000  39.7202938   8.2394791  15.4665000  70.7950758
   7.5804038  16.1213729  70.5648736   8.2025765  15.4150157  71.7501775
  81.5881009  44.3001862  56.0720818  80.7858918  44.6197376  55.6590694
  81.3045991  43.5542403  56.6006868  81.4376330  57.4788904  47.6056128
  80.8297412  58.2182668  47.6009340  81.5806783  57.2805686  46.6801733
  37.9412304  16.0721682  86.7836312  37.3259555  16.1552940  86.0550993
  38.6802980  15.5855659  86.4186255  33.0493922   6.4079279  40.0004115
  33.9986906   6.4911532  39.9102010  32.6937896   7.0834591  39.4229721
   7.1008998  58.7041093  47.6207650   6.2500407  58.3402582  47.8654752
   7.4045222  58.1438269  46.9065319  86.8198318  51.4013957  60.4316678
  85.9382492  51.2423384  60.0944071  87.3738500  50.7835289  59.9546601
  51.9937945  54.4037357  61.9335415  51.6685736  53.5475556  62.2117840
  52.4206976  54.2362957  61.0933335  38.2218790  22.2133106  14.9763788
  38.5175689  22.4635921  14.1010740  38.4028145  22.9808822  15.5188989
  11.3518541  50.6471528  14.8944714  11.7324694  50.4773186  14.0327753
  11.6366024  51.5349151  15.1113318  70.8815334  71.0588548  39.0036382
  70.5068980  70.5691308  38.2714835  71.2009971  71.8708621  38.6101677
  66.7392853  61.9846081  21.4130280  66.7528689  62.5563026  22.1806298
  66.7607746  62.5843371  20.6673101  29.1449000  23.3720037  85.7805355
  30.0377387  23.7155249  85.7479180  28.8912527  23.4511833  86.7001145
  19.3542131  15.3369307   4.9983812  20.0811004  15.9519462   5.0964761
  19.1178073  15.1005097   5.8952921  86.8081002  67.6304994  64.3053431
  86.7704997  67.4256265  63.3710813  86.6975580  66.7851589  64.7405577
  12.5532424  70.7591964  87.4507683  13.1244439  71.1793528  88.0937529
  13.1523545  70.4033256  86.7945271  76.7773677  10.4438951  55.6746006
  76.7583741  10.2189270  54.7444068  77.0388635  11.3644983  55.6930780
   9.1646555  28.9008570  34.4583748   9.6008174  28.0524267  34.3798853
   9.4115952  29.3716595  33.6623863  49.8672644  39.1746214  74.4846257
  49.1532943  38.5525624  74.3449074  50.5151945  38.9494613  73.8170020
  82.2950897   4.5544279  75.6171974  82.1713574   3.7605702  75.0968973
  81.4485112   4.9995692  75.5799707  50.9412106   9.1111653  12.8365442
  51.8567368   8.8435356  12.9166561  50.6801319   8.8137879  11.9649730
  68.3547213  18.5228543  31.6404233  68.5232886  19.1196058  32.3696040
  69.1030105  18.6419924  31.0555290  51.3608018  62.4392896   0.8389306
  51.0302904  62.0729448   0.0186955  52.2819792  62.1802763   0.8629349
  79.3911399  22.3629810  73.9160426  79.6416916  21.4391785  73.9093553
  78.4512567  22.3575501  73.7348745  76.7675092  50.4667250   6.6858354
  75.9944347  50.9374297   6.3743475  76.4345130  49.8848956   7.3690776
  76.8418336   8.6199281  74.6993900  75.9270633   8.9016877  74.7055982
  76.8167686   7.7327766  74.3408292   4.8888736  16.5109024  11.8582454
   5.3030660  16.0050593  12.5573871   4.5553959  17.2946752  12.2949657
  13.0116416   1.1098702   2.8999247  12.9067706   2.0241397   2.6365899
  13.5413634   0.7196294   2.2046990  28.5666246  42.8005255  32.9800902
  29.1733262  43.4858873  33.2601336  28.6188823  42.8102697  32.0243674
   3.7274339  63.7615350  26.0453434   2.9167104  63.9479119  26.5188651
   4.2782914  64.5284105  26.2024737  47.9289470  54.6549529   6.9034854
  47.5444018  53.7814391   6.9764959  47.3896829  55.2025042   7.4741111
  45.8400856  52.0009277  63.6807830  46.2180374  52.7243492  63.1807374
  45.7384139  52.3493605  64.5664970  29.1838629  61.9450113   5.6101358
  28.4462256  61.5915031   6.1072826  29.9353339  61.4243469   5.8937406
  11.0654960  29.0375119  29.6143829  10.8065791  29.3625599  30.4766693
  11.9919251  29.2665907  29.5403309  51.0619164  34.2081172  54.4476479
  51.3659081  34.5178916  53.5945004  50.1519405  34.5006978  54.4983654
  28.3482369  45.0570160  44.1882867  28.9688190  45.6979402  44.5351668
  27.4943850  45.3577280  44.4993190  86.9834506  67.8917968  43.7196509
  86.9234724  67.3062290  44.4744654  86.0843132  67.9620086  43.3989423
  25.5002107  68.2360185  48.8639344  25.9482342  69.0378129  48.5944302
  26.1933740  67.5773231  48.9072579   9.1898453  29.6089872  82.8284275
  10.1074469  29.4901380  83.0736093   9.2215112  30.1377898  82.0311842
   4.6888970  41.6961841  55.9869348   5.2029921  41.9038026  56.7672121
   3.7896198  41.9208007  56.2258484  58.9560362   2.6495318   1.9235634
  58.9547003   1.7135441   1.7231711  58.4292830   2.7248734   2.7192307
   1.7558769  57.1764640  63.8799163   2.3898107  57.8715834  64.0564634
   2.1617647  56.6517459  63.1898744  52.9638976  48.0076078  58.8215725
  53.1465104  48.3100649  57.9319635  53.1133367  48.7767220  59.3714480
  22.2125804  30.5618078   8.0392054  22.5937787  30.9512762   8.8261198
  21.6776718  31.2599530   7.6614516   0.7045998  42.9503217  74.4689838
   0.8611931  42.1034251  74.0512799   0.0507737  42.7673451  75.1437155
  48.9009247   4.2259910  53.1533525  49.2976939   4.7355495  52.4468425
  48.2501029   3.6767988  52.7162590  59.1115464  67.4567606  56.2918349
  58.4958758  66.8305594  56.6726942  58.5856732  67.9636005  55.6731247
  37.2307196  48.4050745  34.1362429  37.9523945  48.2193946  33.5354600
  36.5749524  47.7369832  33.9366051  38.9471750  51.6507509   1.8997095
  38.6388197  52.4737272   2.2789969  39.5724239  51.3113151   2.5400836
   5.1479289  50.1991092  34.5301766   4.9546977  50.9231708  33.9346698
   5.6775992  50.5936534  35.2230085  25.9588244  47.4557721  48.8869685
  26.4709610  47.9800134  49.5026948  25.8675323  48.0143153  48.1150053
  57.3504812  36.0985602  10.3524507  58.3048640  36.1374480  10.2902181
  57.1715224  35.2528009  10.7634214  84.4751075  70.5768720  60.4631997
  84.6104838  70.2672477  59.5676340  85.3189991  70.4405494  60.8938910
  37.6970782  15.4013725  25.8231376  38.5457446  15.5849340  25.4202701
  37.7639429  15.7733663  26.7025588   7.8029453  45.1135060  83.5585747
   8.4003022  44.3783074  83.6959780   7.7975834  45.5774565  84.3958041
  46.6985109  49.7177307  40.1298403  47.0520436  49.9452859  40.9897619
  45.7511201  49.8134702  40.2273922  51.4295761  16.1600610  31.2217154
  52.0213501  15.5453079  30.7879944  51.5179235  16.9711702  30.7211872
  80.6467369  44.8017292  42.3225092  80.8013171  44.1198550  41.6687629
  79.9430569  44.4534821  42.8700403  64.4231613  56.4118215   9.4090511
  65.2126650  56.4570405   8.8697265  63.8118669  57.0176348   8.9900748
  20.5970688   3.5953029  70.5509200  20.6156205   4.5507723  70.6053805
  20.5318904   3.3047705  71.4606312  28.5622312  13.9673323  86.4239834
  27.7506608  14.4519877  86.5746300  29.1992442  14.6377517  86.1770336
  64.1420406   6.7500139  69.1280847  63.4485023   6.6338934  68.4786599
  63.9884592   7.6231620  69.4889961  67.7297003  61.7181478  56.6987039
  67.3728914  60.8349657  56.6043189  67.0776094  62.2851766  56.2870153
  40.2937729  65.6324972  64.3170375  40.2011764  65.8230327  63.3835741
  41.1991413  65.3368090  64.4124751  51.9198682  68.8564111  13.8922148
  51.4298491  68.8537291  14.7144714  51.9693007  67.9344029  13.6398477
  14.6772365  45.6109387  68.6260619  15.4313205  45.0268441  68.5459201
  14.1728324  45.4619764  67.8263003   8.9121548  19.8000998  81.4687771
   9.5595781  19.0992737  81.5457043   9.3939007  20.5294410  81.0786309
  69.0799265  41.4860548  60.4972667  69.2695735  42.4001823  60.7085406
  68.9215196  41.4862995  59.5532651  23.8914557  60.6212907  67.5085715
  24.2569701  59.7366434  67.5030875  24.6544842  61.1952923  67.5759623
  43.6219821  18.8607555  19.4480511  43.6821904  19.7960013  19.2533154
  44.5201746  18.5404886  19.3649178  77.6424032  44.8799296  70.7018133
  77.8904531  44.7590814  69.7852443  78.1101408  45.6693118  70.9744469
  57.5550832  63.0704839  78.7803975  57.2080118  62.8836649  77.9081177
  58.4997946  63.1523265  78.6498070  85.6378583  49.3887218  43.4816518
  85.3940826  50.2435819  43.8366439  86.1809770  49.5916863  42.7200355
  56.1365536  38.5658529  46.4327355  56.3858705  39.3298122  46.9527730
  55.4606492  38.8911138  45.8381008  40.9085739  37.4306323  71.7905134
  41.5073454  37.9307022  71.2358651  41.3333741  36.5792240  71.8948233
  16.2627513  47.2056161  49.0043441  16.4922011  47.1982666  48.0750806
  16.9971284  47.6491172  49.4288779  72.6627194  36.7617277  68.1889243
  72.0868999  36.2923197  68.7925134  72.0696303  37.1527012  67.5473506
   9.5469907  65.9949425  24.6704867   9.8825413  65.7943474  25.5442139
   9.6905761  66.9358512  24.5689686  10.8773748  64.4404241  65.3477957
  11.2959431  63.6644278  64.9751536  10.0526761  64.5211230  64.8686385
   2.1277210  43.7570514   2.5634711   1.9299970  43.2247198   1.7929128
   1.7895344  43.2474756   3.2998094  53.0115774  52.0769781  83.3921250
  53.4935962  51.4856211  83.9702139  53.3337290  52.9492593  83.6192283
  84.0193720   7.4211809  68.0277733  83.2480300   7.8840313  68.3549320
  83.9239855   7.4399789  67.0755234  61.3600559  44.7690785  81.1209432
  61.3793962  44.5204945  80.1967875  60.4763484  45.1100899  81.2587983
  45.8995067  34.0477927   0.8065148  46.3742115  34.2019204   1.6232962
  46.1938224  34.7470212   0.2228285   6.5235364  44.3519220  31.9717477
   6.1094581  45.1164294  32.3721218   6.2668088  44.3953756  31.0506426
   1.1896276  65.2208681  75.1363901   0.3087612  65.5830897  75.0409872
   1.1231631  64.6222535  75.8803490  67.9004033  49.5611016  35.0589702
  67.6372960  48.8844106  35.6827456  68.8213245  49.7273409  35.2602173
  66.6668477   3.6360568  21.7149917  65.8155612   4.0625777  21.8130894
  66.4997448   2.7169887  21.9238511  24.0407466  63.5850289  65.6095281
  23.1112056  63.4062145  65.7516928  24.4821560  63.1547328  66.3418087
   1.0143437  17.4336582  16.4349992   1.2101600  17.6273006  15.5182711
   1.8518056  17.5394756  16.8863219  46.8677666  46.2506359  75.3235868
  47.5293094  45.7683779  75.8195909  46.2978939  45.5720478  74.9616544
   4.7610075  10.6185084   2.3842776   4.3397814   9.8512221   1.9968862
   5.6957394  10.4822920   2.2295094  85.0968876  53.0650824   7.9497676
  85.8890026  53.6016116   7.9801326  85.3958658  52.2145844   7.6280583
  73.7831746  58.1484789  35.4679738  74.0378816  57.2582922  35.2252313
  74.5573402  58.6789270  35.2794952  61.1814295  70.7657973  81.6694960
  61.4578395  71.6102011  82.0256020  61.1132723  70.9143490  80.7263529
   8.7980472  20.6310137  17.3898704   9.7216782  20.4573765  17.5714958
   8.6615767  20.2977525  16.5029969  15.2160305  63.7597852  74.6761666
  15.6731281  63.5117116  73.8725789  15.4979870  63.1118608  75.3218649
  63.3724243  18.6792268  88.2820524  63.8885875  18.9604070  87.5265756
  62.5477857  18.3700835  87.9070409  39.5536144  67.7606238  15.4236559
  40.1875258  67.1076633  15.1269561  39.2464735  68.1790068  14.6193848
  69.0281810  47.5559944  64.4976179  69.1146013  47.2803921  65.4102003
  68.1276424  47.3311104  64.2637602  11.3464624   6.0473100  19.5189093
  10.4272532   6.2786597  19.6521898  11.5930256   5.5771437  20.3153904
  37.1402276  64.2058779  36.4356979  36.7267682  63.9744554  37.2673990
  38.0380241  64.4396230  36.6714023  78.1835077  22.1382756  56.0808872
  77.7376602  21.3152686  55.8806092  77.7669820  22.4466460  56.8856517
  74.8873704  62.3853206  56.5076796  74.3442353  61.9665090  57.1753869
  75.7852248  62.2544233  56.8125652  28.4869132  67.1818174  77.4946730
  28.7788739  66.3260258  77.8086977  27.9235515  67.5139850  78.1936150
  35.1375175  40.9010482  30.6709495  35.3637315  40.1884088  30.0732840
  35.7693222  40.8237492  31.3858478  67.4934792  65.0146647  32.1594989
  67.9647994  65.7661065  31.7997430  66.5695602  65.2220555  32.0195179
  58.0452599  70.0467414  36.2070807  57.1368167  70.2738559  36.0086326
  58.1190176  70.1602898  37.1546557  16.0679401  68.8523292  42.5907225
  17.0155307  68.7528079  42.6823709  15.9428520  69.1289791  41.6829507
  58.7449537  22.0704806  52.7813574  58.5421161  21.1351605  52.7650753
  59.0950368  22.2548475  51.9097598  86.4255498  39.7163080  71.2752695
  86.0668501  40.4798177  70.8229208  86.3717685  39.9410912  72.2041462
  14.3332065  60.4150663  64.5002823  14.4833274  59.5776200  64.0616718
  14.6297244  60.2712964  65.3989698  75.8000124  71.2314465  13.3999868
  74.9080934  71.4901205  13.1680382  75.9336610  70.3992235  12.9463628
  64.9570947  22.2070025  65.2720621  65.4196183  21.5699412  65.8165405
  64.7274111  21.7224507  64.4791644  73.6869444  47.3156823  39.9808886
  73.3805795  46.6853998  39.3288791  74.4504735  46.8970715  40.3784060
  56.1214740  66.0228114  82.1881514  56.2832139  66.1977768  83.1152216
  56.6737823  66.6530429  81.7255547  55.3280911  38.9924335  71.5730653
  55.1348623  38.0789347  71.3623180  56.1227169  38.9525445  72.1052406
  27.4545254  57.7698016  48.0520793  27.1974934  56.8520029  47.9636940
  28.0649582  57.7776439  48.7893324  40.1293654   1.4661418  22.0918341
  40.7583655   1.3692746  21.3768463  40.1140365   2.4061770  22.2716416
  81.7125159  65.2468133  30.0051329  80.8849860  65.6560631  30.2579976
  82.2092459  65.1868370  30.8211562  73.3734488  44.3148713  84.0075158
  74.1705772  44.1461906  83.5051564  72.9183160  44.9963478  83.5128688
  11.1916164  68.4930153  48.9513733  11.6290993  68.4455691  49.8014259
  10.4179787  67.9378426  49.0488400  47.6286292  23.5045936  77.3020702
  48.3942008  23.8123569  76.8168757  47.3782792  24.2477502  77.8509554
  82.0286743  65.3836879  59.8807570  81.0848584  65.2392085  59.9483526
  82.1499379  66.2980479  60.1366335  64.6300781  62.2226110  42.0853495
  63.7105882  62.4861595  42.0491233  64.8321932  62.1863771  43.0202658
  31.0072369  20.8295880  74.2450936  30.3770665  21.1265009  74.9015689
  30.4677417  20.5326185  73.5123005   9.3905963  23.5218200   4.1296752
   9.9099324  23.0309490   4.7665170   9.9762264  23.6377415   3.3814564
  20.3310808  31.0580945  85.1223771  20.2907851  30.7302077  86.0207636
  20.3984064  30.2703975  84.5827173  18.0083849  51.8418389  49.7562558
  18.5148941  51.6263339  48.9731608  18.1349009  51.0917425  50.3372730
  51.4412515  22.7018728  68.0358208  52.2454929  22.7271610  67.5173729
  51.7412805  22.7238549  68.9445183  82.9932905  17.1758653  41.4356527
  82.0669412  17.1758845  41.6767106  83.1998435  16.2545375  41.2784180
  78.8442009  63.8435877  58.2640291  79.1819007  64.7183931  58.4561389
  78.1023487  63.9964183  57.6787685  54.0589476  19.0272717  61.0398238
  53.3635860  18.3843349  60.9007683  53.8136508  19.7688257  60.4865075
   6.6467864  34.0799198  32.2679026   7.5453777  34.0809241  32.5976974
   6.1253699  33.7386898  32.9944828  36.4950970   1.6303306   8.1409301
  36.6373655   2.5625066   8.3053666  37.0860356   1.4218387   7.4173594
  65.5683299  34.8580458  24.6770010  66.0410004  34.5063374  25.4313985
  66.2547123  35.1853638  24.0956458  79.1555435  24.3590796  32.8100702
  79.3214654  24.2461160  31.8741530  79.1364513  25.3076133  32.9371573
  81.8416143  57.8274820  44.6294759  81.7808113  58.7767359  44.7364889
  82.7766312  57.6589977  44.5129068  68.2491682  48.8191382  14.4320806
  69.0129159  48.8521327  13.8560313  68.1786635  49.7051696  14.7873401
  61.5446412   4.3770236  15.9782889  60.5952471   4.2552750  15.9705394
  61.7928180   4.3836522  15.0538451  18.6585759  54.4635674  82.5336785
  19.3698261  54.3867306  81.8977138  18.9046503  55.2106845  83.0791097
  36.0217539  68.9991254  34.3322860  35.8315131  69.4608018  35.1489226
  35.8338351  68.0809420  34.5268562  17.9684096  39.5909189  10.0120310
  17.9137672  39.5819779   9.0564337  18.5540877  40.3212454  10.2116213
  86.7011101  57.5252605  27.1495573  86.1758142  57.7465101  26.3805680
  86.3214928  56.7077766  27.4718037   0.9811580  32.1165396  37.2870274
   1.9077796  32.3448285  37.2129434   0.9794461  31.2537491  37.7015409
  73.3522713  47.9316422  19.8637380  73.4623717  48.7054361  20.4163253
  73.4029645  47.1940149  20.4716590  63.8005308  16.1368969  50.6153621
  62.9077380  16.4704282  50.5264264  64.3490152  16.8104821  50.2132678
  83.6273888  35.2275470  36.5437505  83.6331320  35.4032458  35.6028314
  84.2536619  34.5126908  36.6577434  72.3241522  61.6881256  87.4841159
  71.9954518  62.4452098  87.9688958  72.2006637  60.9497511  88.0805935
  59.9409624  13.6909736  59.8641246  60.4659176  13.7643884  59.0670900
  59.5574841  14.5604079  59.9792778  34.8336465  47.5007179  48.3564482
  34.6063985  46.8666715  49.0365772  35.7292792  47.2733706  48.1066741
  65.6891858   4.9542855   7.8148553  66.2093693   4.2830328   8.2565120
  66.2557054   5.2723409   7.1119128  75.8598354  71.1105600  26.0806163
  75.0393089  70.8319948  25.6739597  76.5010814  71.0813040  25.3705603
  18.7644751  10.1328490  77.0483609  18.7938963   9.4726114  76.3559358
  17.8869247  10.5095035  76.9830261   9.5885386  10.1069031  73.0304604
   9.2457172  10.6903495  73.7074358  10.5088416  10.3553896  72.9436926
  22.5095773   7.2209319  69.2000920  23.2281879   6.9178693  68.6451292
  22.6814706   8.1540898  69.3261901  66.8466986  38.8960872  40.9543641
  66.2244300  38.2270047  41.2395696  66.9546358  38.7385356  40.0164095
  78.3414115  20.7184962  15.9978930  77.8679157  20.0683903  16.5169265
  77.6559510  21.2738374  15.6264473  78.1939086  49.5376506  86.6295573
  78.4603432  48.9069397  87.2984730  78.8332076  49.4251284  85.9260891
  80.5344359  60.7763971  89.2919120  81.1118780  60.5099858  88.5764978
  79.8517583  61.2962760  88.8677552  76.5325530  37.5262717  78.6649317
  76.5401021  38.3330192  78.1498266  77.1249608  37.7031343  79.3956878
  79.0910905  45.4072988  65.1532287  78.9451648  44.5873979  64.6813176
  80.0249427  45.3998473  65.3632198  29.9137366  52.1090401  80.5559203
  30.3960266  51.3040736  80.7447511  29.1348129  51.8161978  80.0828948
  32.2758881  49.3177095  68.6187717  33.0409957  48.7629387  68.4668784
  32.6350894  50.1995319  68.7167288  86.4145589  38.1106493  64.9487169
  86.7026294  39.0206479  64.8769544  87.2236536  37.6001312  64.9175884
  78.7853420  66.4160483  33.2466304  78.1333602  65.7156350  33.2226969
  79.6201379  65.9623297  33.3627645   6.6913321  23.4895731  35.6113533
   6.6351020  23.8406219  36.5000798   5.9149246  23.8324784  35.1688161
  80.4467448   6.6069449  27.6231374  81.0339168   6.2559248  26.9536259
  80.7061188   6.1586178  28.4280969  21.7088673  41.0421027   2.4003304
  22.6512463  41.1554454   2.2766085  21.4031718  41.8957759   2.7069638
  50.7462089  66.7928264  49.0677355  51.0826541  67.4377480  48.4455518
  50.0230719  66.3688068  48.6056618  54.5475132  10.4055548  81.4816259
  53.8441274  10.8062049  80.9707837  55.0626989  11.1460307  81.8017992
  51.7126370  61.3733312  60.3143804  51.3991771  61.0713594  61.1668989
  52.1560881  60.6126009  59.9390507   6.6335806  61.0888449  62.6317537
   5.9534652  61.5072018  63.1596291   7.1193551  60.5465034  63.2531398
  64.5310767   6.8551206  72.9704414  63.6076305   6.7916796  73.2142736
  64.6339760   7.7523961  72.6533604  56.1833731  48.8950063  49.9294692
  55.7250239  48.6289313  49.1323795  57.0532961  49.1580845  49.6290432
  50.2731280  37.3178618  26.2684433  50.9695322  37.3370503  25.6120250
  49.7003462  38.0472039  26.0313505  73.9525103  55.4772685  34.9308148
  73.0487122  55.4217998  35.2411436  73.9773856  54.9068609  34.1625387
   6.7961859  66.2329203  38.4656921   6.2446333  65.6502669  37.9436419
   6.2299797  66.9761995  38.6734862  67.1929148  71.4863080  41.9921510
  66.2646427  71.7118357  42.0528142  67.4990603  71.4859042  42.8990725
  81.1884333  22.6772697  56.5222069  80.2350755  22.6935158  56.4380835
  81.3450653  22.3571493  57.4105881  59.1150501  55.5061215   0.7909596
  58.4357186  54.8376865   0.8800383  59.9356510  55.0134817   0.7786305
  43.0751648  65.4859182  81.0295244  42.3215032  64.9257084  80.8440760
  43.1254835  65.5111467  81.9850679  43.6117947  17.0765244   1.1536890
  43.7990595  16.8972956   2.0751231  42.8676021  17.6782139   1.1731591
  21.2572565  53.5567423  73.7625566  21.2062474  54.2618848  74.4078503
  21.9226247  52.9623910  74.1093469  60.4747643   5.5571337  70.7183116
  59.8452587   5.5516614  71.4393696  60.4755686   6.4626159  70.4079355
  45.1905328  56.2133792  29.1140236  45.6443338  55.5002291  29.5631487
  45.8193797  56.5251251  28.4631796  37.8269259   9.2273823  24.0550009
  38.1661687   9.8682735  23.4301772  37.5765281   9.7469663  24.8189153
  24.6474237   6.6144416  67.7150755  25.5520010   6.6521985  68.0257942
  24.7071519   6.8088448  66.7797297  23.3322761  64.5690738  20.1844639
  23.7613841  63.8331453  19.7479924  23.5160522  65.3213997  19.6219126
  38.9726710  53.6359512  34.9227911  38.2799589  53.0414358  35.2107725
  38.5492432  54.2025527  34.2778853  59.8158871  39.4643201  29.4869222
  59.6577915  40.2410700  30.0234827  60.4778695  39.7414488  28.8535102
  78.8843349  10.5022610  84.7697308  78.6402581   9.6277486  84.4666031
  79.8395302  10.5185317  84.7099891  41.0000825  71.1769650  70.5352733
  40.2377286  71.6440223  70.8771883  41.7152153  71.8105178  70.5938207
   1.4460577  61.7329044  37.7507467   2.0870225  61.4084748  38.3833138
   1.0076801  62.4540700  38.2023849   6.8092501  20.2312585   5.4739598
   7.5842597  20.7173081   5.1922725   6.9237861  19.3587205   5.0974087
  45.7968714  67.7757061  10.4610945  45.9660765  67.4368490   9.5820169
  44.8847751  68.0648842  10.4348616  59.1528183  45.2904340  42.8873615
  58.3508954  44.7778178  42.7854979  58.8758996  46.1971276  42.7552456
  70.1878632  10.8789364  33.7543783  70.2004738   9.9987034  33.3785289
  69.6537544  10.7944914  34.5442065  49.4573111  45.3538783  56.5507389
  49.9170539  44.5193252  56.6423336  48.7697989  45.3228653  57.2160186
   6.7037986  54.3840566  35.9880398   7.3884934  55.0200718  35.7808935
   6.4483424  54.5913632  36.8869269  43.1922001  45.5683837  35.4600201
  43.4756864  46.4307860  35.1564916  43.6263106  45.4575547  36.3058906
  82.4151369  50.5313769  48.7667085  81.9698808  49.8379943  49.2537398
  82.6512019  50.1247831  47.9329299  85.0494845  58.5376452  84.5514488
  84.9162233  58.4617902  83.6066106  84.4492686  59.2320757  84.8229981
  46.5572014  42.0704957  71.7174692  46.9838969  42.7392132  72.2531741
  46.3470292  41.3684578  72.3332632  72.4943084  20.7666790  59.5764683
  72.1259894  20.5126187  60.4226516  73.3822197  21.0604924  59.7802307
  22.7966928  65.5026113  40.9048055  23.6816259  65.2467245  40.6447147
  22.8786306  65.7441805  41.8273901  42.0739855  35.0233275  14.1819763
  42.5786560  34.8499863  14.9766411  42.4401597  34.4252564  13.5304709
  77.5208246  15.0544525  70.2796868  77.5188828  15.4452489  69.4058983
  77.8368822  14.1614918  70.1419888  69.3157103  35.9567435  43.5688880
  69.5620437  36.7842572  43.1556413  70.0774428  35.7163441  44.0963381
  62.2958333  35.3646245  79.4849715  62.0062034  35.1491736  80.3714969
  62.0257830  34.6141384  78.9557501  38.5642084   2.8521762  60.8857294
  37.9040754   2.9717190  60.2029661  38.2352243   2.1234530  61.4120030
  49.3452537   7.7245956  87.5125614  48.5073642   7.7149974  87.0498725
  49.1075130   7.6932135  88.4392364  57.2328711  21.8138522  65.4508854
  56.5075708  22.4369599  65.4945673  57.4487761  21.7625101  64.5197673
  28.4385491   1.1343694  42.6692495  27.8131656   1.0501259  41.9495063
  28.1970761   1.9534461  43.1017260  71.1525204  68.3999781  11.6052376
  70.7045854  67.8699504  12.2645226  71.1217104  67.8688104  10.8095345
  26.2850616  22.4422967  19.3525996  25.8132727  22.0615595  18.6118661
  25.6042519  22.8565907  19.8827794  23.7119090  36.1142221   8.2898513
  23.8385177  35.1803555   8.1222353  23.2232336  36.1458475   9.1123037
  51.7703598  23.7219836  82.9122640  51.7605216  22.9571199  82.3368350
  52.3016821  24.3665394  82.4448495  73.6002685  65.1445200  50.5741977
  74.1095146  64.3365100  50.5107942  73.3548977  65.2011463  51.4976794
  75.9414225  63.8380974  13.3015501  75.7565397  63.1496639  13.9403846
  75.3723870  64.5632864  13.5594868  44.2945194  56.4697300  72.1819877
  45.2086197  56.1899154  72.2305279  44.3399837  57.4211376  72.0871812
  49.3268246  15.8127996  20.7648933  49.5400141  14.9162674  21.0237602
  49.9408628  16.0103264  20.0576649   5.7912260  50.5827191  16.8576963
   5.1208278  50.0460562  16.4348593   6.1619909  50.0146614  17.5330300
  55.4148756   8.8164123  21.7249518  55.6244690   8.5198086  20.8393284
  55.5810423   8.0534998  22.2786530  85.2785655  45.4903350  51.4028689
  85.6863672  45.2174580  52.2247373  84.4828104  45.9496492  51.6712645
  17.0386383  50.3527049  23.5504357  16.7634330  50.0638167  22.6803566
  16.9822146  51.3075733  23.5147361  25.2672279  49.5917961  79.1662900
  25.9642217  49.1099113  78.7210727  25.0684958  49.0649490  79.9403505
  53.2310496  17.5626573  28.9506803  54.1599099  17.3338373  28.9176403
  53.1939855  18.3320845  29.5188703  85.6332651  60.9162129  82.7598413
  86.3403497  60.4714204  82.2924839  86.0139329  61.1461848  83.6074478
   3.2210225  70.3089811  37.3626554   3.7305305  70.0305589  36.6016597
   3.7871703  70.9351709  37.8138701   6.9509375   7.0384964   0.8019852
   7.2317567   7.9274475   1.0190992   6.0001519   7.0542031   0.9114933
  17.4277320  29.8704855  19.2861569  17.6072578  30.7336971  18.9135067
  16.9252038  30.0522411  20.0802993  22.4659236   8.6907642  88.7530296
  22.2161985   8.8835530  89.6567451  21.6478842   8.7533214  88.2599475
  52.1740123   6.9488467  86.2411533  51.6980078   6.2832296  86.7377471
  51.5024662   7.3779484  85.7109370  68.8795860  23.1791436  59.0198119
  69.3689380  23.5186317  58.2704693  69.0994933  23.7723563  59.7381233
  59.0318585  16.7980285   4.6812025  59.3678420  17.2413998   5.4601562
  59.2189308  17.4019050   3.9624752  69.0391252  17.2257484  84.1703249
  69.4866105  17.7531452  83.5086291  69.7449046  16.7804909  84.6392097
  29.2239042  39.4230526  20.2303328  28.3717312  39.0095785  20.0922310
  29.5658689  39.5674255  19.3480356  85.4837758  64.3116496  79.8402202
  84.9162891  64.9832704  79.4619132  85.3143766  63.5305125  79.3135699
   2.6346420  61.4372137  51.4888674   1.9774802  61.2459331  50.8197022
   2.1477308  61.8823552  52.1824078  47.5570293  60.9641084   0.5095810
  48.2263351  60.8547209   1.1850779  47.0506041  61.7245288   0.7951088
   5.9749482  56.3184711  15.3115276   5.7868345  56.4914870  16.2339758
   5.7026560  57.1161354  14.8578532   5.7448502  46.0452849  54.2759381
   6.0115589  46.7282826  53.6606232   6.4862440  45.4402502  54.2983000
  69.7884912  28.0202529  51.0326114  69.0588113  27.8461165  51.6271496
  70.4529615  28.4338562  51.5836499  56.8925028  12.6002978  46.7751999
  57.1016780  13.5203665  46.9362935  56.6913626  12.5605539  45.8402160
  64.8531053  37.5296754  51.7712068  64.0859456  37.5058187  52.3431585
  65.1615337  38.4344096  51.8218006  11.0090554   1.6228393  24.5870244
  11.6799249   2.0822567  25.0921001  11.2687331   1.7480801  23.6742735
  30.9318813  64.5056879  73.8945037  30.9463872  65.3345790  73.4160052
  31.8548581  64.2902767  74.0284579  23.4537664   8.2457188  17.2503687
  22.8800112   7.8588745  16.5890152  23.8205886   7.4952413  17.7177624
  55.5357685  22.4487343  59.9396132  56.2075056  21.9690862  59.4549084
  55.7363264  23.3706697  59.7782330   2.6091375  33.5701117  85.2391544
   2.3672349  33.7459225  86.1484428   3.4245716  33.0725404  85.3001618
   1.6839125   8.3361129  10.7851537   0.8466144   7.8768662  10.8503929
   2.2548228   7.8825338  11.4052821  70.2677894  30.7591377  34.1881228
  70.3941878  30.2485305  34.9878325  69.5942929  30.2820845  33.7032986
  75.5683630  10.8010574  26.6502252  76.0135967  10.9970175  27.4746029
  74.7871101  11.3539785  26.6626334  58.1037894  49.3798407  67.8020189
  57.3301450  49.1692815  67.2791699  58.7220198  48.6748503  67.6096352
  29.4718787  71.2501897  88.1215485  30.3208916  71.4335566  87.7193229
  28.9909346  72.0748912  88.0523231  65.7611807  21.2850416  17.5038660
  65.2249311  21.0086106  18.2470041  65.6481731  22.2348368  17.4671190
  47.5569705  31.7781702  10.1213095  48.3853813  31.3056257  10.0396459
  47.0548918  31.2726746  10.7605458  20.0315690   4.9412115  11.5741452
  19.1277134   4.9149018  11.8881271  19.9533797   4.9579088  10.6202902
   0.9649479  37.0630287  55.1114169   1.0025648  37.8996894  54.6479349
   1.5262738  36.4803926  54.5998701  67.5170236  48.2732156  75.5341585
  66.6241353  48.0854036  75.8234834  67.4088741  48.8804749  74.8021942
  49.5973924  64.6016568  81.4637052  50.1615754  65.2098588  81.9412194
  49.8334966  63.7386427  81.8038424  85.1144192  71.3777516  64.6567986
  85.0902785  72.2573748  65.0335107  85.7642438  70.9102154  65.1815554
  75.0062928  35.6403535  85.9567010  74.2437513  35.8053563  85.4021413
  75.2279551  36.4975810  86.3203749  65.3819869  26.0915037  72.1996614
  65.0793243  25.4864924  71.5224697  66.0178271  26.6512279  71.7539621
  26.9949519  68.2403937  79.4608033  26.6844788  67.6896277  80.1794793
  26.2487481  68.8013731  79.2493471  11.2762340  61.1668684  27.1074568
  11.2583903  60.3288335  26.6452762  11.7240167  61.7623324  26.5065034
  85.8201477  23.2194081  63.1175030  85.1684631  22.5183140  63.1199591
  85.8953662  23.4797109  64.0355534  84.1810537  33.8554029   3.4502615
  83.9932207  34.6238758   3.9891492  85.1328840  33.8606247   3.3491489
  39.2321413  38.5644553  63.6039275  38.9697331  38.9451686  64.4420392
  38.7237202  37.7560954  63.5383979   7.8681981  57.2714086  29.8104107
   8.2944262  56.6086789  30.3538725   8.5124157  57.9761276  29.7426855
  47.8226254  63.0356315  75.2372147  47.7221257  62.1267454  74.9542699
  46.9403850  63.4027609  75.1815385  62.6926950  57.9881215  64.1142827
  61.7891686  58.1250663  64.3990951  63.0453343  58.8710715  64.0034829
  42.4453117  19.7542304   7.6177667  41.7339244  20.3666413   7.4303823
  42.0037057  18.9324827   7.8321187  72.7134545  42.8602502  42.2217677
  72.5885011  42.9364513  41.2758227  72.7051434  41.9178642  42.3893127
  57.2729808  45.8659260  60.1460313  56.4160809  45.4588407  60.2734514
  57.0985906  46.6198325  59.5826089  18.1585030  45.6311528  75.8874263
  18.3559983  45.1001496  75.1158934  17.2898108  45.3388384  76.1633938
  78.2667999   9.1543933  88.4333642  77.4446779   9.3801052  87.9981613
  78.1026139   9.3278731  89.3602836  42.4804624  70.6711046  42.7506814
  42.5809086  71.3506917  43.4172426  41.5360468  70.5239806  42.6990521
  79.3325073  26.5764449   5.2459685  78.3854336  26.5703684   5.1072374
  79.6967589  26.2416034   4.4265579  54.3997035  11.3506360  13.2860115
  53.7776335  11.3316713  14.0132673  55.2091227  10.9960234  13.6538732
  53.5877128   6.5898257  61.8962739  52.8355747   6.0581861  62.1568108
  54.0527422   6.7641673  62.7145554  47.3877166   5.6315720  77.1841251
  46.9162298   4.8110501  77.0403342  46.7679386   6.3128177  76.9233349
  64.8992986   6.7040491  84.4732198  65.4105050   6.4649809  83.7000793
  64.2257364   6.0266498  84.5338504  35.6362627  25.3954940  88.5203016
  35.0940373  25.9632150  87.9726554  35.0089938  24.9049307  89.0514450
  46.2976684  62.4650964  31.1017494  46.3827808  61.7062493  31.6789312
  45.8407614  63.1186662  31.6311967  62.9038712  25.3104511  40.0009079
  62.5688355  24.8607537  39.2251791  62.3025999  26.0437832  40.1310183
  52.6589449  17.3308289  63.7542106  52.2861363  16.4573954  63.8740416
  52.5063888  17.5317461  62.8308521  57.3096221  10.9083115  68.5006196
  56.5887258  10.5642441  69.0280264  57.0167904  11.7798073  68.2342055
  45.2895726   4.6633541  69.8823857  45.8846115   5.3396728  70.2060425
  44.4307822   4.9187331  70.2192722  58.0040604  21.3270035  39.9144885
  58.8676395  21.2043530  39.5202552  57.8403179  22.2675115  39.8447385
  43.8867424   6.6136218  20.1612489  42.9456723   6.6402721  20.3341902
  43.9756040   6.0279142  19.4093965  74.3858060  47.8449000  70.9214701
  73.5319770  48.0952150  70.5685533  74.1847884  47.4162365  71.7533784
  82.2618084  53.9952401  53.9166534  82.8367671  53.9822535  54.6818238
  82.6373533  54.6659198  53.3462267  19.2938617  66.8684514  17.0476404
  18.9048418  67.3190205  17.7972289  18.8503795  66.0205953  17.0212709
  17.3105848  23.3661313   4.7172260  16.9374468  23.7579391   3.9276144
  16.8167791  22.5551589   4.8385172  50.3061912  50.5879336   4.1285569
  49.7511361  49.8114209   4.2004864  50.2228670  50.8580251   3.2140409
   4.2206750  60.3145617  44.0619146   4.9118755  60.9766031  44.0486940
   3.4075853  60.8179880  44.1028898  16.1533000  13.7750020  84.2413466
  15.3286139  14.2396258  84.3836470  16.0193481  13.2939119  83.4247432
  33.0744295  65.9722599  84.0040945  32.4028655  66.4740012  83.5420455
  33.6865442  65.7036867  83.3189553  68.8213974  65.7176075  15.3533938
  69.6282232  65.2758395  15.6181671  69.1179916  66.5105504  14.9067336
  74.9956573  68.2930298  53.8648181  75.8332547  68.1510431  54.3058422
  74.3543481  68.3289085  54.5745131  43.6681332  29.0702390  69.7677014
  44.2723968  29.4539494  70.4032041  43.8134972  28.1267846  69.8383769
  35.5641380  60.4020319  74.2074598  35.0233582  60.5051228  73.4244136
  35.6462548  59.4548865  74.3188344  83.3591856  11.5451843  53.6890588
  82.7336272  11.7354264  54.3881414  82.8342090  11.5548398  52.8887226
  53.0434772  32.9619512  25.8334615  52.8983553  32.0625350  25.5398256
  53.0687406  33.4762141  25.0265369  59.0256332  44.3798994   2.4319590
  59.7991126  44.7130278   2.8869172  58.3720515  44.2667271   3.1220712
  59.2914711  22.0811295  50.1300018  58.3886830  21.9013122  49.8675684
  59.5787624  22.7768072  49.5386236  52.2826802  34.7138099  32.8661297
  52.4917564  34.6739095  31.9328950  52.9122582  35.3385207  33.2261294
  51.3807941  42.4423856  78.4664231  50.9057096  41.8854800  77.8496713
  50.7923254  42.5250193  79.2168284  64.4131219  49.1509397  56.3166530
  64.4047899  48.8257788  55.4164126  64.5610670  48.3710992  56.8516230
  78.2222243  66.7430307  84.2763072  77.6570079  67.4763694  84.5191581
  78.9997562  67.1545989  83.8990969  28.7606201  11.2017803  87.6506571
  28.1511648  11.8387074  87.2776691  29.3466817  11.7236099  88.1987971
  69.3283629  61.8298899  81.8753415  69.9578398  62.4463602  82.2494471
  69.4757070  61.0155955  82.3564300  29.4113015  39.2826671   6.2587203
  30.1276680  38.8059939   5.8393953  29.7888910  39.6145078   7.0732998
  60.2570589   1.0035507  51.8855948  60.9863463   0.8436942  51.2865811
  60.3319063   0.3126416  52.5438306  34.3323233  10.5366830  17.6965386
  34.7133930  10.2963619  16.8519893  34.9208642  11.2075434  18.0426567
  10.9472897  55.3154072  57.7175939  10.6554842  55.1922746  56.8143111
  10.5086976  54.6200707  58.2078754  22.6531461  61.6194041  13.8857734
  23.1656291  62.4175332  13.7569989  22.2516607  61.7290304  14.7477614
  44.1641699  26.4568001  21.5406371  43.4800082  26.8229570  22.1010688
  44.4585196  27.1957269  21.0081173  58.3458572   3.3118767  75.6039500
  57.4471836   3.2858742  75.9324945  58.2795425   3.0031892  74.7003205
  54.4813001  27.8520232  69.6996276  54.5741110  28.0126053  70.6386864
  53.5481779  27.9765710  69.5264150  39.7249311  39.5032077  35.7651453
  40.3375778  39.7745501  35.0815745  38.8614551  39.5909979  35.3614946
  84.1092175  11.5263931  15.5613654  83.9734032  11.2624457  16.4713754
  84.4415295  12.4222138  15.6188611  73.6389720   3.9902065  10.2087019
  73.9778589   3.4599183   9.4874655  74.3310147   4.6282115  10.3826508
   8.3196328  20.9421249   0.6563838   8.3007391  20.6136998  -0.2425110
   8.2373902  20.1582667   1.1995544   5.3578541  69.0868829  47.8926937
   5.4945392  69.8673707  47.3556761   5.6545640  69.3421983  48.7661977
  22.9928178  50.5081387  35.9964502  23.9387727  50.5783906  35.8681304
  22.7763903  49.6230860  35.7030687  39.6091157  58.0128740  75.2429465
  40.0102188  57.3639853  75.8211261  39.2347884  57.4979051  74.5281613
  70.5730822  18.8964666  47.6248886  70.9749763  19.1343937  46.7893626
  70.8951468  19.5540151  48.2414404  51.5319457  43.8321479   4.4312551
  51.4974668  44.7858417   4.3570188  51.8913815  43.6726821   5.3039569
  81.6658811  49.2968672   3.1947267  80.9008868  48.8771849   2.8011757
  81.6841655  50.1723340   2.8081319  28.7216313  70.3148428  25.7776332
  29.1296342  70.1169829  24.9346523  28.7211855  69.4797209  26.2453970
  75.7267616  57.9381997  85.1302693  75.4727343  57.2366710  85.7299022
  75.4625219  57.6221618  84.2662501  54.9903395  61.8976559  47.5874213
  54.5727813  62.7520346  47.6965726  54.2623422  61.2904585  47.4548954
  31.9325339  68.2950894  70.4761491  32.7834779  68.3161478  70.0383334
  31.6135042  69.1959963  70.4230579  13.6725150  30.7153959  23.0916087
  13.6474512  29.7640249  22.9891542  13.2486995  31.0525381  22.3023386
  63.9670164   7.5654579  30.3017364  64.5450265   6.9299718  29.8794881
  64.0387794   8.3513942  29.7600852  84.2150627  67.0429965  37.7025923
  84.3297986  66.1856447  37.2926955  83.6467543  67.5225222  37.0998381
  61.8174230  51.9612948   5.8533660  60.8775761  52.1408308   5.8271684
  62.1438935  52.4986730   6.5750816  50.1900785   9.2147535  52.0266974
  49.7676828  10.0125092  52.3451304  49.5779143   8.5138236  52.2507153
  82.2489585   6.3261628  17.1551887  82.8147236   5.8445876  17.7587010
  81.8046916   6.9706653  17.7060746   8.4174221  45.2587824  54.2543243
   8.9237351  45.9832892  53.8869431   8.9449839  44.4811892  54.0719534
  44.2850865  56.3600454  58.1759934  44.7070405  56.8521049  58.8803116
  43.3532553  56.5572975  58.2709357  84.2580166  64.1567810  54.6562271
  84.7801373  64.7779822  54.1485551  84.4208338  63.3104751  54.2397073
  51.4261184  11.7612888  65.4617921  51.1079859  12.5491739  65.9025422
  52.3749211  11.8791438  65.4157982  57.5900002  65.7841102  49.0850722
  57.6838534  65.3852763  48.2199971  58.1591700  65.2635053  49.6518598
  85.9081184  35.2875658  21.0988313  86.4950209  36.0436538  21.0884257
  86.2412551  34.7162304  20.4068575  17.4086117  59.9257310  83.3310785
  18.2386471  60.3491346  83.1119838  17.5210266  59.0179520  83.0490641
  35.8685954  62.7742006  21.5964925  36.1408245  63.5593751  22.0714916
  35.6845842  62.1315501  22.2815999  63.5667646  21.3017731  42.3945567
  63.7039222  21.0103722  43.2959474  62.6250273  21.4626359  42.3355161
  48.9281095  19.5054350  60.7365987  49.5869977  19.8337636  61.3483982
  49.0786356  18.5606144  60.7068032  24.5639955  51.5803709  83.2599165
  25.1316807  51.4815582  82.4955859  23.6936111  51.3365500  82.9449336
  43.5970436  27.9235198  29.5291185  43.2995007  27.2169283  28.9560316
  44.4870166  27.6725668  29.7765099  72.8212370  32.2771642  70.0903151
  73.4640584  32.8767645  69.7115117  72.0694829  32.8320534  70.2981506
  57.7718554  65.4335827  46.2670096  57.8046660  66.2690156  45.8009547
  57.2445892  64.8661525  45.7046527  70.6248981  15.3827458  21.3172092
  71.1020704  15.0658716  20.5503134  69.7789375  14.9369730  21.2739773
  35.8458104  43.7595501  57.1550128  36.2176906  43.6842936  56.2762219
  35.4366177  42.9092442  57.3155527  31.2238573  60.5594381  62.7724134
  30.3405928  60.2463994  62.9675609  31.4685941  61.0787460  63.5383476
  75.3337650  11.3140590  69.1604525  74.7253242  11.7992079  69.7178233
  74.9509437  10.4393749  69.0925753  65.2188482  34.4247285  50.7423367
  64.9884848  35.1807393  50.2023253  65.8801331  34.7567120  51.3495607
  49.4448451  42.9781416  80.1734376  48.9799588  43.8139946  80.2116781
  48.8735169  42.3649414  80.6358242  77.2073232  65.3453858  56.5141076
  77.4366240  65.8966240  55.7659168  76.7396355  65.9315241  57.1090378
  14.1167606  59.8055526  38.9413170  13.5824484  60.5432975  38.6472508
  15.0123790  60.1433386  38.9410469  40.7147010  64.5866281  53.8826806
  39.8662719  64.7049583  54.3097612  40.5606257  63.9048852  53.2286781
  51.0791797  52.9112412  49.7550258  51.1886794  52.1330779  49.2084880
  50.4018635  53.4219812  49.3116081  79.9066214  21.4506494  82.3698080
  79.4509259  20.6941514  82.7389750  80.6357157  21.6073527  82.9698892
  47.9198790  63.7441090  15.9935934  47.8919489  64.5160255  16.5589221
  47.8211506  63.0044687  16.5931072  17.5128802  34.6117633  74.6609052
  17.2819252  34.5918973  75.5896123  18.4275387  34.8936374  74.6475361
  12.9477170  65.1037803  74.3457007  12.6702033  65.2480846  75.2503522
  13.8379890  64.7601264  74.4201965  65.8151506  54.1227026  31.7050611
  66.2931356  53.5200729  32.2747975  65.3172073  53.5534726  31.1183229
   8.9127375  33.4340539  12.7836156   8.8535387  33.5485118  13.7321022
   9.3434779  34.2303114  12.4727000   4.4981281  23.7954808  69.9993082
   3.9999681  23.2508602  70.6087808   3.8344991  24.1910299  69.4341806
   2.3512240  65.4780313  82.5865792   3.0128954  65.1000097  83.1658223
   1.6065805  64.8800612  82.6511515  48.3102438  31.2022599  56.1945659
  47.8973213  31.4704543  57.0154182  49.2295673  31.4482480  56.2973567
  12.0012942   2.8485107  78.6922630  11.2053838   2.3535951  78.8867289
  11.8279020   3.7252617  79.0350087  30.4181772  16.0305947  86.4342971
  31.3571957  16.1490042  86.2912747  30.0589017  16.9175494  86.4127483
  32.7911739  33.9205246  77.3777889  32.6636496  34.5716103  78.0677577
  32.4202171  34.3261731  76.5941614  21.5791282  64.9620562  16.9906673
  20.8420230  65.4628954  17.3400494  22.2552784  65.6179423  16.8207667
   1.5076694  66.1478865  68.7345564   1.8567659  66.5343294  69.5376911
   2.1175364  66.4248381  68.0507495  73.6883336  69.3756494  48.9347853
  73.6253297  69.6240685  48.0125325  74.6288081  69.3220347  49.1046824
  31.4530082  29.4086453  73.8293533  31.9805567  28.8943770  74.4404609
  31.5288244  30.3087040  74.1461785  70.7705282  16.2708221  44.8090739
  70.6659778  17.2215198  44.7706687  70.6984281  15.9849551  43.8984074
  85.7276064  42.5308433   2.1634328  86.2437495  42.6405898   2.9620465
  86.3489500  42.6899934   1.4529153  82.1538671   8.0842293  87.5733888
  82.5239183   8.1902044  86.6969966  81.5661680   7.3326675  87.4959520
  18.4796167  18.0664885  33.4136877  18.4713569  19.0205172  33.4911012
  18.0684007  17.7571282  34.2207994  69.3343015  40.2864548  46.9006249
  69.2016302  40.1110767  47.8322217  68.4549640  40.2565016  46.5236629
  50.5371510  49.2568945  32.9189059  50.0217934  48.7027142  32.3327980
  49.9440747  49.4558783  33.6434041  62.2727305  68.0644780  21.3672772
  62.1919230  68.9701056  21.6665106  61.9569351  68.0816607  20.4638339
  62.9640632  30.8240037  26.6045823  63.1877806  30.1032448  26.0157793
  63.1242290  30.4753964  27.4815382  50.2581195  65.2583972  32.5854460
  49.5828851  65.5601341  31.9777904  49.9028284  64.4507255  32.9564804
  35.5410025  37.7410356  81.1228607  35.9672846  37.2285735  80.4359123
  35.6879547  37.2374160  81.9234881  21.1631790  50.5775070  84.9435509
  21.7931299  49.8644889  85.0484264  20.3588060  50.1459999  84.6554234
  34.9020348  26.5342679  85.5355504  34.8428086  26.9626838  84.6816277
  34.0152552  26.5870508  85.8920162  25.6931045  47.1155709  62.0990192
  25.6399115  48.0656703  62.2025253  26.3264860  46.8376454  62.7606967
  64.5450371  31.9179368   0.6239457  65.3417259  32.2456044   1.0412619
  64.4019049  32.5083515  -0.1157539   1.2226880  38.7601941  42.9774546
   0.7793777  38.6153283  43.8133503   1.6049339  39.6341133  43.0573615
  21.2370639   7.3724201  60.8759123  21.7641330   6.6448625  60.5456247
  20.8862874   7.0555600  61.7082509  19.0338510  67.7002539  37.6801705
  19.5149680  68.4025774  38.1177775  19.7099929  67.1841887  37.2411480
   9.4907163  56.1227375   4.4492528   9.1105928  56.9228944   4.8118640
   9.3976528  55.4753030   5.1481088  84.9910951  47.3643279  23.3501755
  84.3581168  46.7888679  22.9207386  85.8442477  47.0367888  23.0654288
  26.1479996  52.9865906  37.5256522  26.9644534  52.7442507  37.0887239
  25.5085396  53.0562752  36.8168032  10.6714530  43.1247344  25.0917262
  10.7107042  44.0787281  25.1594553   9.9302742  42.8757125  25.6438801
  19.3592406  59.1422955  76.1512065  19.3431614  58.7662583  77.0313027
  19.2684226  58.3892703  75.5673084  32.7617145  71.5329227  66.4262340
  32.4434557  71.5050079  65.5239237  33.3385495  70.7726622  66.5003775
  82.5219045  66.0570778  23.9038349  82.7803685  66.9157568  23.5690237
  82.0880011  65.6321977  23.1639452  51.1847524  14.5754450  55.1886509
  50.8467953  14.9053347  56.0212311  52.0930043  14.8765024  55.1626759
  17.8230180  31.9812090  80.9128713  18.1035453  31.9060642  80.0007916
  17.6142930  31.0842626  81.1739323  57.4090455  64.1804371  75.7300700
  56.6655774  63.8120291  75.2528253  58.0336821  64.4261836  75.0476701
  26.9361327  68.0545924  53.6524951  26.7840263  68.8735883  54.1240258
  26.3420884  68.0958139  52.9030660  76.3137924  55.7093515  56.1600326
  77.1935925  55.9146780  55.8437658  75.9942735  55.0362765  55.5591087
  85.8077926  39.8938284  79.4365305  86.2376440  40.2009940  78.6383395
  86.4323154  39.2806557  79.8241158  34.5419040  61.2340569  70.4161011
  34.2974948  62.1572830  70.3516845  35.4973340  61.2346064  70.3579191
  10.5719638   8.4295261   3.0909681  11.3791825   7.9151649   3.0988577
   9.9143761   7.8491324   3.4743132  58.1327623   3.0578922  51.6509509
  58.7520382   2.3282437  51.6324542  58.2174588   3.4216419  52.5322820
  49.0136079  37.5105664  13.3739400  49.3320782  37.6638092  12.4843754
  49.7345679  37.0581282  13.8118307  33.9779897  52.3558090  39.1931280
  34.1137723  53.2179498  39.5862033  34.1281858  51.7394374  39.9098979
   1.0387881  52.6231686   2.5293162   1.4206950  51.8203091   2.8839930
   1.0187297  52.4811003   1.5829304  74.3284033  39.9723803  75.2963682
  74.9039548  40.0821635  76.0532829  74.9006751  40.1001765  74.5397937
   7.2355694  13.5066578  86.4992152   7.3573684  13.1892725  85.6044172
   8.1197434  13.5383485  86.8645423   0.5451892  53.3199296  13.1943634
   0.0711635  54.0539007  13.5852827   1.3459058  53.7109067  12.8447611
  47.0857572   6.0951063  64.4762333  46.3304813   5.8628005  63.9360257
  47.4419885   5.2545680  64.7640293  53.1181672  53.1244152  33.3808978
  53.3283652  53.8154445  34.0090117  53.8260579  53.1619652  32.7376928
  50.3049821  39.6175924   3.8203916  50.1493906  40.5100336   4.1295385
  50.5477423  39.7217284   2.9003616  81.8948690  26.8157819  63.3027974
  82.1680987  27.1541693  64.1554822  81.3246840  26.0755011  63.5104152
   9.1086218  50.9039556  44.8018003   8.5297340  51.0380720  44.0513781
   8.5371739  50.5547842  45.4857290  70.7019206   4.0091561  75.3738746
  71.2412799   3.5479568  76.0162285  69.9123605   4.2545915  75.8561486
  39.6699047  39.6750069  13.9321802  39.9129171  39.6588189  13.0064833
  40.4666073  39.4130645  14.3935727  52.2066062  16.7733437  60.6963302
  51.2598329  16.8914975  60.6195721  52.3117428  15.8706033  60.9967264
  13.2277678   6.5942498  31.9979819  14.0754182   6.5651244  31.5542788
  12.9712457   5.6761669  32.0848847  13.2729428   3.8715919  31.4572269
  13.7989596   3.4594420  32.1425521  12.4810371   3.3361095  31.4084851
  59.5414368  54.0449769  76.8270101  58.9261082  54.7123969  77.1305773
  59.3946640  53.9957959  75.8824092  56.4772711  34.7473062  32.5492066
  56.0226598  34.6949020  33.3899290  55.8038818  35.0288758  31.9299350
  65.7688223  71.0466831  17.2420998  65.0687716  70.4700085  17.5480528
  65.3408430  71.8921685  17.1071184  59.2627139   3.0146184  20.7664664
  59.3911985   2.0666231  20.7343958  59.0128667   3.2527964  19.8736734
  38.2090254  31.6702884  79.7233066  38.6898125  31.8965678  78.9271450
  38.0483112  32.5103969  80.1529814  76.5745056  26.5754274   4.5883200
  76.0791002  27.0090740   3.8935136  76.4097048  25.6422301   4.4533557
  72.2110125  61.9766409  34.5617662  72.0074918  62.7480424  34.0328513
  71.4589925  61.3972023  34.4395017  63.3882132  41.8956326  52.2229496
  62.5304151  41.5293448  52.4380023  63.1951110  42.7584642  51.8562550
  86.4101546  28.8624573  80.4779218  86.9039868  29.6817246  80.5120224
  85.6635408  29.0562512  79.9111382  32.4460355  70.2642155  28.7466066
  32.3034918  70.3714380  29.6870407  32.8208566  69.3877654  28.6595649
  83.6206579  33.8488337  15.5335900  83.3620709  34.7161606  15.2219675
  84.5737516  33.8371190  15.4457995  21.4308641  38.0258720  71.3444355
  21.7971530  38.7385865  70.8208876  21.1627638  38.4433118  72.1630307
  66.3806843  30.2427682  14.4750284  65.7294821  30.0829279  15.1581233
  65.9028829  30.7177013  13.7950460  45.3364315  45.5505477  81.5116221
  44.9837356  46.2577510  80.9715288  45.8204667  45.9978839  82.2057634
  72.1613156  20.2674947  28.3938475  73.0480191  19.9070190  28.4006393
  72.2538046  21.1382782  28.7803882  83.5523416  36.2079948  13.8873639
  83.3571053  36.8869012  13.2414531  84.0859690  36.6512506  14.5469076
  85.3922969  16.7220898  88.7029220  84.9689227  17.4616805  89.1388023
  86.3292228  16.8999070  88.7852786  61.5695844  38.7102539   2.3864424
  61.9953709  38.6088237   1.5351789  61.6575937  39.6416707   2.5888005
  31.9726508  30.1733175  14.4333348  31.7824927  30.4689609  15.3236531
  32.8759369  29.8591119  14.4730951  66.5355778  51.6113552  39.5654016
  67.0599768  51.9077567  40.3092993  66.4628452  52.3814875  39.0016304
  26.8426781  16.0086329  82.3375783  27.7515602  15.7759258  82.5273482
  26.6747040  16.7796271  82.8794127  12.3929299   6.0774093  59.3275453
  12.1853545   6.1298115  60.2604967  12.0807921   6.9068204  58.9657733
   3.8957215  35.2916484  11.1266542   3.9019442  34.6238482  10.4409166
   3.5868356  36.0837178  10.6868277  76.0324770  67.4812762  68.4543271
  76.3829599  68.0833949  67.7979380  76.0657634  66.6222513  68.0333757
  74.2257367  60.6617771  79.0661028  73.4770985  61.0665267  79.5042242
  74.3921299  61.2229488  78.3087182  85.7433564  44.8383137   4.2807305
  84.8695759  44.9302300   4.6605868  85.7576247  45.4659210   3.5581398
   5.9100438  26.4613286  21.6459492   6.5883899  25.8437535  21.3726739
   6.2889801  26.9158665  22.3983018  47.8715110  12.5199981  46.9377585
  47.0780180  12.1194615  47.2929642  48.3752143  11.7847844  46.5885084
  59.5133846  54.3337192  86.4035506  60.4699713  54.3040800  86.4207330
  59.2417951  53.4527743  86.6612464   3.3769132  16.4142502  61.8082727
   3.9281301  16.4448606  61.0263169   3.3738520  15.4916227  62.0631864
  60.9159161   3.5054400  68.8066381  60.8366472   4.2468295  69.4068797
  61.6831148   3.0255890  69.1186973  86.7531995  64.0245256  82.1640723
  86.3044141  64.3796459  81.3967959  86.0872775  63.5013338  82.6102226
  61.0098371   9.8967685  30.2311049  60.9657662   9.9465178  29.2762151
  60.5918088   9.0631935  30.4470605   9.4596617  58.8564013  66.6421424
   9.6600669  58.8781133  67.5778764  10.1694301  58.3424307  66.2570516
  68.5976277  11.5552819  31.1495899  69.2433771  10.8695908  31.3200811
  68.9334699  12.0145138  30.3798185  12.1509011  51.7656013  10.0228819
  11.9212975  51.0885193   9.3864277  12.5983630  52.4368068   9.5076219
  17.3918624  62.1359856  29.1689519  17.5124048  63.0720705  29.3284713
  17.3435628  62.0596810  28.2160214  58.4635180  12.0381575  49.5101699
  58.7103670  12.8284253  49.0297803  58.0871758  11.4614600  48.8453252
  32.2970795  69.8481036   6.7510942  32.0423233  70.2936342   5.9431130
  31.6840565  69.1166653   6.8248011  79.2920611  57.7595648  11.4564186
  79.5236453  57.0836681  10.8194224  80.1054184  58.2439344  11.5980796
  73.3320140  44.5755276   8.2631799  73.4463936  44.7132362   9.2034913
  73.3295972  43.6240159   8.1590092  43.7868190  29.9620369  27.6415034
  44.6833996  30.1740198  27.9011924  43.6287221  29.0941373  28.0129702
  26.9225147  21.5109025  83.1111909  25.9874232  21.6543334  83.2570099
  26.9733261  20.6366656  82.7247199  19.3333520  62.2115050   6.8693205
  19.1707889  63.1506415   6.9577950  19.9863162  62.0170718   7.5416786
  76.1870253  23.4531146  62.4140263  77.1188370  23.3072331  62.2506941
  76.1606365  23.9227048  63.2477052  40.0864661  34.1197059  25.8451372
  40.0979215  33.2690915  26.2839490  39.4733669  34.6458110  26.3585129
  12.8040622  50.2606088  20.1425811  12.5512033  50.9107911  20.7979872
  13.0121313  49.4766129  20.6508031  19.2284857  71.1125459  25.5303030
  18.3671755  70.8509279  25.8557759  19.1280089  71.1357588  24.5786742
  55.5646918  10.2292371  16.5917151  54.6821841  10.0855546  16.2500028
  56.1368871   9.7669173  15.9792733  19.6843524  20.8822229   2.0853472
  19.9522884  20.9830618   2.9987331  19.4720250  21.7704284   1.7985723
  52.9362881  17.1981304  38.8570389  53.5233911  16.5560522  38.4579431
  53.3010823  18.0461082  38.6038777  12.7550460  54.3238950  17.3492079
  12.2425438  54.8851482  16.7673418  12.1972071  53.5604392  17.4981466
  76.3223002  47.9414027  46.8717984  76.1145962  47.9145909  47.8058070
  76.4746092  48.8681250  46.6868126  54.6527964  34.9072606  83.4397915
  55.0169361  34.3088936  84.0921649  54.1975505  34.3374709  82.8198538
  61.9741151  33.4387484  74.6535816  62.2406923  33.9076778  75.4443240
  61.2889792  33.9861755  74.2699879  80.8617237  12.8502735  73.9920746
  81.3418357  13.6740331  74.0765990  80.7050588  12.5707236  74.8940391
  66.9377817  50.6835693  77.9436064  67.4467664  50.3180891  78.6672021
  66.6415508  49.9193721  77.4491555  56.5412229  35.7218806  25.9043902
  57.2614404  35.9960170  25.3366157  56.9680432  35.4397481  26.7133757
  78.9374449   9.0022547  66.5482907  78.5349547   8.9504011  67.4152075
  78.4275923   9.6681752  66.0869535  23.8766906  13.8938800  36.6418925
  23.2959606  13.1620766  36.4334498  23.7955666  14.4847815  35.8932363
  83.4010567  39.3274562  19.4334648  82.8116605  40.0087379  19.7570371
  83.0725671  39.1225260  18.5580620  66.9818792  15.7948327  52.3643336
  66.7914910  15.6136992  51.4439126  67.0736746  16.7466601  52.4071140
  77.4458196  47.3196530  39.4642896  77.9652534  46.5338547  39.2941680
  76.9532317  47.1137915  40.2587769  25.9560208  27.0166225   5.0812469
  25.2570442  27.1561406   5.7201509  25.9017941  27.7735146   4.4978040
  31.7389466  31.8435691  74.7991495  31.6807763  32.7698074  74.5647764
  31.3654879  31.7952740  75.6791655   1.5277063   8.8981705   7.5578984
   0.9070566   9.5960663   7.3482148   2.0550625   8.8004477   6.7650697
  34.9779338   7.3531869  13.2316487  35.5345520   6.8988189  12.5992266
  35.0034050   8.2700413  12.9578585  81.9796949  69.7822839   5.4911417
  81.1566617  70.2208617   5.2755083  82.6069976  70.4953761   5.6104002
   4.4215816  50.7376866   6.2756320   4.5154503  50.4924121   5.3551642
   3.4838345  50.6579935   6.4503066  81.7427800   2.0262219  74.2588807
  81.7884024   1.0745970  74.3514033  80.8271710   2.2021783  74.0422441
  33.3095147  28.8956552  65.0507756  34.2281205  29.1608483  65.0962489
  32.9401890  29.4309021  64.3483931  41.0173743  41.4166471  56.2168946
  40.0781687  41.4023112  56.4010659  41.3544075  40.6210975  56.6288911
   6.6293294  61.3177423  74.7011607   6.4108070  61.2509529  75.6306870
   6.2510455  62.1527215  74.4255834  58.2937013  14.7936884  83.4225938
  58.1693711  14.2242171  84.1818541  59.2098553  15.0660057  83.4749104
  23.9045069  64.0074993  11.3082014  24.2762619  64.5537260  12.0007810
  24.3235709  64.3195069  10.5061612  29.9840111  57.4300758  88.5398065
  29.4054853  56.7521884  88.8891036  29.7119684  58.2311605  88.9875654
   1.9328584  35.4147091  70.3874499   1.3830899  35.6938728  69.6552927
   2.0583020  34.4759977  70.2484654  71.3823152  47.0577417  23.7695511
  70.9042652  46.4645983  24.3491034  71.1652943  47.9329560  24.0906957
  29.4679671  69.8701445   2.8583924  30.0167514  69.7143166   2.0897669
  30.0429464  70.3228145   3.4754180  34.6555862  44.5757388   9.6118647
  35.2440126  44.7027233   8.8676463  34.7805408  43.6604359   9.8625411
   8.0261303  18.0059498  22.3920126   7.2599161  17.8658073  21.8356785
   7.9163536  18.8941456  22.7315552  12.1503890  32.1583826  50.6659438
  12.4308469  31.3537168  51.1019347  11.2183139  32.2299332  50.8717312
  25.8941387  42.5930653  88.4085936  25.7626680  41.7009411  88.0875616
  25.8889548  43.1347856  87.6194523  83.1332035  37.2126870  69.0704687
  83.9970538  37.6198805  69.0057553  82.7454672  37.5971751  69.8566375
  30.3634154  26.9712547  73.2736332  29.5251722  27.2347564  72.8939661
  30.8248284  27.7950956  73.4305279  35.3397981   1.8335252  68.6778051
  35.3601657   2.1911667  67.7901624  34.4290891   1.9329056  68.9552301
  67.8192750  51.8796940  21.7370744  67.1061311  52.3121313  22.2068145
  67.3995026  51.1471075  21.2861420   1.6397794  54.2551694  69.7479783
   1.1134438  53.7993282  69.0911591   2.0256297  54.9929862  69.2757732
   1.1322811  62.2428542  32.3581345   1.2010279  63.0683568  32.8377710
   0.3347318  61.8353202  32.6958667  52.9007204  49.8102703   5.0710773
  52.9668278  49.6000901   4.1395807  51.9718606  49.9954520   5.2094940
  42.0093217   0.0256721  49.2010487  41.9745698   0.7626872  48.5912678
  42.9440391  -0.1234141  49.3435567   6.5386332  33.6916226  42.3550296
   6.5380816  32.7616326  42.1284240   5.9760942  33.7503109  43.1272584
  77.9718177  12.2869990  45.5301066  78.2727372  11.8260290  44.7470446
  77.3175799  11.7037332  45.9148217  14.7624269  36.7793047  31.1103842
  14.1213110  36.4815914  30.4649627  14.7346974  36.1154100  31.7993739
  67.6179417  26.6605382  24.4010184  68.4340107  26.8008383  24.8812049
  67.0548732  27.3870216  24.6682405  77.1802348  46.6156498  77.2701674
  77.3847456  45.8872718  76.6837608  77.1145623  47.3765328  76.6931266
  64.9274621  49.9383916  47.7058753  64.5151737  49.6940983  48.5344711
  65.7999357  49.5469119  47.7478913   6.5543040  21.0132195  57.8196504
   6.4338441  20.1772925  58.2701472   5.7877885  21.0918905  57.2517624
  58.5458138  21.7097503  23.8539198  58.5470874  22.6669473  23.8559561
  58.5882744  21.4682129  24.7791703  86.2208846  67.2011939   0.8930106
  85.8472813  66.3209565   0.9358426  86.8392618  67.2347018   1.6228864
  26.4949913  40.4199594  86.5564359  25.8980520  40.2679876  85.8237696
  26.4911664  39.5958917  87.0433955  84.1458485  60.9243902  61.0060213
  83.9262234  60.0399124  60.7132834  83.3202404  61.4059156  60.9537096
  27.1785993  49.1526372  46.8955793  28.0741021  49.4830003  46.9674603
  26.7167876  49.8207127  46.3889859  12.6045205  41.2316320  50.5189207
  12.9892838  41.9076906  51.0767144  12.6923094  41.5758949  49.6300967
  16.0668270  66.3154077  85.2526591  16.5409931  66.4412408  86.0745864
  16.0062492  65.3652198  85.1541449  72.7294171  34.6327137  49.6769535
  72.5351816  35.5490254  49.4797800  71.9070557  34.1722401  49.5098676
  85.7227296  28.8774257  67.4128680  86.6552188  29.0904997  67.3768799
  85.5371003  28.4708733  66.5664114  14.1712149  35.9377123  84.9192214
  13.4870093  35.2736851  84.8345909  13.8427217  36.6851311  84.4195323
  14.3973089  59.4192069  17.0821649  14.5045179  59.0268056  17.9486285
  14.8949900  60.2356901  17.1257588  23.1800441  21.9942224  81.3939485
  23.2960188  21.2872545  80.7591429  22.2311269  22.0830198  81.4828471
  55.6329370  39.2454743  18.6078705  55.7590985  38.8820244  17.7313893
  56.4112606  38.9735978  19.0942113  63.9054978  56.2616095  59.0860051
  63.6002649  56.5033669  59.9604295  63.3297227  55.5442716  58.8211631
  54.9397310  32.3794953   3.2852173  54.8851988  31.8051062   4.0489812
  54.0881969  32.2903750   2.8572232  61.0939395  48.8905113   6.9388820
  60.4516313  48.8157755   6.2331295  61.4919310  49.7515057   6.8103389
  37.5735317  17.5738051  11.2890076  38.1079334  17.8342424  10.5387949
  37.4232640  16.6369974  11.1623470  60.7177510  29.2777993  53.8100603
  60.3972538  28.7494807  53.0790385  61.3996710  29.8290961  53.4262781
   0.8912053  17.8026146  60.7277025   0.4531334  17.1670128  61.2936841
   1.8144063  17.5512338  60.7548935  17.0176983  51.3426025   0.5312796
  17.9230233  51.3378863   0.8420791  17.0326049  51.9076348  -0.2412152
  70.2064081  63.6874125  88.4072905  69.5762279  64.3962099  88.5365609
  71.0557015  64.1268505  88.3645486  67.0686080  18.8175475  17.3787795
  66.1677844  18.6015085  17.6197688  67.0817457  19.7735914  17.3336193
  30.1962478  52.6243053  20.2077963  30.9548554  53.2064628  20.2506799
  30.4216579  51.8942860  20.7844192  55.9523097  25.9879996  59.8662166
  55.8145001  25.7026235  60.7694335  56.0142970  26.9414946  59.9231094
  61.1679147  67.9141416  37.2118654  61.9176663  68.4136538  36.8884585
  60.9134903  68.3600955  38.0197177  70.7146699  37.8034742  39.4834812
  70.2228984  38.2925715  38.8238021  71.2642834  37.2049771  38.9775581
   1.5852541  50.8801454  15.3255700   1.7884139  51.2044268  16.2029521
   1.9572864  51.5358600  14.7357715  62.6606993  33.8914006  68.5822888
  63.1212229  34.4831702  69.1772329  62.0590814  33.4052669  69.1461698
  12.5290651  12.7751554   9.9394586  13.3762792  13.1931148  10.0936341
  12.6219317  11.8997456  10.3153115  70.4696080  63.1129568  52.4769093
  70.1114439  62.9129278  53.3417439  70.2515227  64.0340438  52.3345390
   4.3845338  61.0135766  78.6024223   4.4511153  60.1123586  78.9180245
   5.2754089  61.2403851  78.3357178  25.4463837  64.5257551  40.1261735
  26.3795474  64.7000330  40.2489112  25.3732317  64.2441901  39.2142515
  59.5315052  51.2373621  44.5796266  59.8990497  50.6283438  43.9391270
  58.7930262  51.6444706  44.1266993  65.3643217  58.7304381  10.7903188
  65.7397925  57.9374910  11.1730568  64.6304945  58.4169311  10.2616953
  56.2554873  50.9703325  40.7962256  55.5077465  50.6905323  41.3242668
  56.0141277  50.7410516  39.8987806   7.9717119  57.5435714  22.5990284
   8.9093370  57.6202716  22.7756865   7.5930442  57.2639302  23.4324811
  59.1665509  26.3374430  29.5195707  58.9483183  26.2652402  30.4487602
  59.4460563  27.2462363  29.4091023  80.5328015  34.3615135  18.3513966
  80.7579944  34.5175178  17.4342365  81.0890623  33.6278301  18.6131490
  36.2877624  61.6864892  11.7948544  36.7651624  60.8569686  11.8095707
  35.3652553  61.4324051  11.8204217  41.4025297  13.8293297  12.8185815
  41.0676764  14.0409090  13.6899823  42.3541422  13.8266241  12.9218204
   6.7787630  64.7740143  24.1768623   6.7443341  64.6515523  23.2281529
   7.6940783  64.9878567  24.3576972  42.4698482  50.5463979  71.9420032
  42.3716910  51.3785732  72.4046924  42.5765992  50.7941264  71.0235988
  80.3684666  31.5391620  87.1453096  80.8364540  30.7104150  87.2472799
  80.0808229  31.5410354  86.2323532   5.1443420  70.4589729  41.3420292
   5.2451087  71.0730508  42.0693436   4.5347886  69.7976453  41.6696299
  43.7373815  67.0652344  33.1524015  43.3030249  67.9078208  33.0196826
  43.1071123  66.5470723  33.6529019   1.6587085  52.8238164  17.4202110
   1.3676499  52.8218760  18.3320843   1.9035330  53.7331768  17.2488737
  65.4136864  63.0242476  55.3614482  65.1108633  62.2414851  54.9012169
  64.8355359  63.0941505  56.1211109  43.3909015  35.5508735  42.3659284
  42.8518418  36.2672063  42.0304976  43.7309278  35.8768895  43.1991916
   5.3804721  37.6577528  50.8599256   4.7223619  37.8567658  50.1939552
   5.4781848  38.4733470  51.3513421  56.6673063  68.7992585   3.1299749
  56.1320346  69.5860731   3.0268295  57.4271756  69.0908631   3.6337578
  34.0867019  61.1839629  62.0979629  33.4356368  61.8273618  61.8179916
  34.0554082  61.2120865  63.0542377  68.2703227  11.9801824  71.7363170
  67.3186114  12.0045896  71.6369099  68.5994519  12.5324379  71.0271487
  52.5809335  43.9885988  46.1171816  52.9762741  43.3400596  46.6997059
  52.5684547  43.5640177  45.2593896  58.1234114  51.0307666  80.8381408
  57.8291988  51.0832220  79.9287898  58.5908395  50.1971267  80.8909351
   4.8472160  20.4724208  87.1005539   4.1132317  21.0388748  86.8625861
   4.8083702  20.4185072  88.0554446  77.0464235  14.8272250  57.6869488
  76.6293504  15.6845735  57.6018876  77.8776519  15.0077382  58.1259318
  30.7061290  65.7469894  33.0682075  31.5916556  65.3917653  33.1449548
  30.2733374  65.4893555  33.8821781  41.9333406  53.0476359  87.1340837
  41.9554746  52.3079134  87.7411690  41.1018936  52.9515334  86.6696572
  35.5260631  46.8369290  57.0769371  36.0043346  46.0171083  57.2009625
  34.6339401  46.5637720  56.8630830  64.9685487   9.6622371  46.5263181
  64.7762125   8.9076743  45.9696552  65.6246876   9.3421205  47.1453811
   7.7284039  64.3324194  82.4876249   8.1251103  63.5559181  82.0927813
   7.1407424  64.6709232  81.8121243  56.4941218  26.2931470   5.1321448
  56.3250629  26.3960248   6.0686634  56.5812298  25.3481861   5.0068737
  26.9300978  47.6616178  72.1747302  26.5295984  48.2596880  71.5437436
  27.5060186  47.1078200  71.6476107  86.4812420  48.1951881   4.4484567
  87.3557153  48.0933726   4.8241718  85.8863127  47.9426748   5.1545219
  41.4564818   0.5401341   3.9528406  41.1434989   1.4332549   4.0963982
  40.6591570   0.0146389   3.8868123  15.7317276  62.8802693  86.8787846
  16.1577389  62.4859377  86.1177006  14.9568763  63.3140924  86.5215245
  66.9217355  30.4671933  52.2438085  66.9204862  31.0746646  52.9835441
  66.8234594  29.6029692  52.6434215  10.7395944  17.1403892   9.8692228
   9.9764820  16.9250985   9.3329941  11.4265853  17.3478733   9.2357990
   9.0700840  14.5964356   5.6917153   9.7542634  14.0817239   5.2636940
   9.2581201  14.5143173   6.6266649  86.5776754  11.2840408  37.0171133
  87.3352066  11.8370564  36.8259272  86.1747637  11.1262180  36.1633066
  28.7048753  48.7379264   4.7151665  28.8766327  48.3103905   3.8761526
  28.9390878  48.0812227   5.3709993  74.4750066  27.6206915   2.4902619
  73.7173217  27.8416064   1.9486513  74.9150057  28.4575886   2.6393785
  13.1729671  52.9047848  58.9625660  13.5394988  52.3640681  59.6622173
  13.2935887  52.3835332  58.1688538  64.9081405  34.2891174  36.3709759
  64.5017341  33.7413718  35.6993804  64.7648153  35.1856707  36.0678556
  31.0258179  39.3689040  78.0746737  31.7410227  38.9879099  78.5841415
  30.3175991  38.7282667  78.1398040  36.9524249  56.4219895  40.0940102
  37.7533499  56.0426740  39.7322495  37.2108122  56.7508171  40.9550214
   0.9419947  35.9170841  25.0280862   1.1787916  36.7793637  24.6865706
   0.1590007  35.6711291  24.5354824  72.4562738   0.6655628  84.3789719
  71.8602046   0.5905160  83.6337864  72.5002598   1.6050651  84.5568272
   9.0281279   6.0412185  11.2168428   9.9839789   5.9904508  11.2150181
   8.7472085   5.2513578  11.6788343  60.1342057  38.1793082  35.9425796
  60.0937815  37.5983113  36.7022112  59.4475685  37.8577683  35.3583081
  78.0629440  35.9601196  10.0934571  78.6951477  35.2464801  10.0081993
  78.5336947  36.7350551   9.7866989  67.2840322  22.8089321  54.3288290
  67.4309565  23.1120002  53.4328408  67.9296817  22.1137024  54.4554158
  38.6999937  47.7374176  65.5402630  38.3151468  47.8981426  64.6786992
  38.7207035  48.5985257  65.9577505  61.5422987  22.9353929  23.5180245
  61.4567428  21.9969716  23.3498651  62.4745913  23.0633021  23.6932435
  82.8876448  22.9080879  75.2455502  82.3150014  23.6496553  75.4414814
  83.5526828  22.9306801  75.9336242  74.0784247  43.2681995   4.4083934
  74.0204133  44.1525982   4.7699256  73.9657858  43.3871050   3.4653103
  12.7848456  38.5914320  80.1618692  13.0407213  38.6742636  79.2432298
  12.6169802  37.6565481  80.2803814  68.7793089  34.9034802   5.2558038
  69.2310983  34.6508867   6.0609837  68.3117991  34.1131741   4.9854656
  15.1560756  47.3668090  40.0579265  14.4779438  47.5603465  39.4106921
  15.6276168  46.6175019  39.6940314   1.7740320  26.3637692  87.9571682
   2.5120502  25.8900786  88.3408062   1.8762004  27.2619190  88.2720023
  75.1818852   3.0205731  40.2381034  74.4830106   2.9230670  40.8848636
  75.8731085   2.4321995  40.5418446  81.8331759  50.7594781  20.8442262
  81.4844070  51.2754615  21.5711053  82.7826914  50.8581046  20.9144047
  70.9007523  46.0018443  14.7932854  69.9661577  46.0296683  14.9982016
  71.2283057  45.2402991  15.2718138  48.4614821  64.4662146   7.5797443
  48.1198799  64.2759516   6.7060511  49.4126353  64.4529934   7.4731394
  34.2489984   2.0870260  44.1650680  33.9534854   2.9319252  43.8258790
  34.9858510   2.3028622  44.7366402  62.9512925   9.7806439  88.2831588
  63.3849848  10.2658744  87.5812370  62.3058011  10.3937693  88.6347979
  67.4099857  64.2433874   8.4190417  67.4831484  65.1840795   8.2578668
  66.5999503  64.1485257   8.9201163  56.4463198  24.5527221  21.6846271
  56.3006711  23.7502568  21.1835606  57.1374275  24.3247298  22.3064161
  18.4845883  57.9598588  68.3252933  17.6127026  57.6457923  68.5648961
  19.0294376  57.1728785  68.3195404  26.1417166  31.3418499  23.2674122
  25.9790738  30.7872622  22.5043842  25.6360235  30.9353166  23.9711430
  53.2138725  33.2311290  74.9936987  54.0966894  33.5829396  75.1081342
  53.3416914  32.2862950  74.9089460  46.4222550   2.1788633  55.5173513
  46.7031957   1.2641096  55.4943308  47.1876592   2.6565144  55.8370975
  56.6460423  31.3194225  31.0143207  57.4108192  31.3778632  31.5869750
  55.9001015  31.2883011  31.6133495  41.1258380  63.6607458  46.7652997
  41.0735145  63.4050582  45.8443665  42.0634011  63.7504290  46.9360755
  79.6536818  57.1824466  65.4171415  80.4456126  57.6562390  65.6713031
  79.1463096  57.1128141  66.2258173  41.0384853  25.8416571   0.2985329
  40.1484430  26.0767533   0.0362611  41.0888432  26.0875944   1.2222269
   9.6614987  43.1341056  53.0371514   9.5387974  42.4721928  53.7176275
   8.9167198  43.0130457  52.4481856  82.3750434  52.5820649   7.8868121
  83.2982948  52.7898779   8.0305219  82.3857488  51.8845528   7.2313779
  52.8105979  40.8782614  12.1942726  52.7767169  40.0380229  12.6515288
  53.1182318  40.6599575  11.3145359  66.5729773  13.9469454  61.7193342
  66.0665772  13.3427095  61.1764809  65.9285263  14.3343054  62.3116745
  63.2269185  63.2369650  77.4360024  62.3309643  63.5738568  77.4346358
  63.7751397  64.0139837  77.3267901  75.0179844  43.3652857  35.1596335
  75.3293865  42.4656982  35.2596476  75.1072275  43.5470175  34.2240904
  51.4377828  20.4912210  41.0972874  50.9893694  21.0522611  40.4645226
  51.2703599  20.9042099  41.9444247  83.6433400  57.3291838  32.9181831
  83.3258186  57.8010871  33.6880656  84.4459676  56.8999817  33.2145046
  55.0734556  64.3176077   9.5630157  54.2343139  64.1370227   9.9866455
  55.5805104  64.7862189  10.2259869  64.6256871  66.0554852  44.7397473
  64.7777785  66.9704972  44.9760796  64.4780650  66.0736935  43.7941744
  33.8451636  27.1816606  69.5342853  34.3865247  26.7630379  68.8650207
  34.3229089  27.0404277  70.3516252  79.7923792  15.1935539  17.4172394
  80.3713801  15.0684429  16.6653504  79.4824887  14.3132503  17.6299961
  71.8439522  49.4886038  25.2364226  70.9933377  49.6138562  25.6571347
  72.1911050  50.3742278  25.1297129  47.3845771  10.6394087  84.8290231
  47.1008595  10.6987313  85.7412824  46.8830202   9.9077852  84.4693015
  66.8712678  62.4098079  48.5418300  67.6547568  61.8805511  48.6910418
  67.1171524  63.0080504  47.8362249  75.1997565  10.2255002  83.5777243
  75.1416369   9.4448176  83.0269171  75.5509465   9.9064759  84.4090612
  70.7108242  28.5903456  82.1633873  70.2305142  28.8523947  81.3779801
  71.3329815  27.9315226  81.8549973  56.0860889  35.4377362  58.8051834
  55.1779167  35.1471446  58.8889195  56.5859759  34.6301434  58.6862771
  70.5638185  10.8479935  65.5516251  70.5031223  11.4508049  64.8105676
  71.0201030  11.3467441  66.2293302  77.3307896  69.3928503  75.0763649
  77.2254286  68.4575616  74.9021065  78.1157981  69.4480124  75.6212966
  58.7529388  16.0665532  59.2447768  59.5019580  16.6174994  59.0174877
  58.0823289  16.6832536  59.5383664  51.0292204  31.0551677  80.2017171
  50.9609751  31.6121151  80.9772067  51.2908226  30.2000812  80.5432184
  46.1014073  35.5023533  77.6829417  46.3313668  34.8048233  77.0690993
  45.7551624  36.2031128  77.1304180  40.1864929  16.5123501  80.3273889
  39.6083691  16.5889562  79.5683525  39.6017840  16.2921642  81.0525547
  64.8139994  30.0525926  16.5995276  64.5271928  30.8622644  17.0219081
  64.8617388  29.4148262  17.3117121  52.6169765  63.5367100  29.7748537
  51.7228100  63.6615503  30.0928363  52.9219664  64.4194072  29.5649520
  34.9944871  33.1036444  80.1630169  35.2526752  33.9054583  79.7084123
  34.2720532  33.3721773  80.7306534  65.7735537  28.3039668  85.5393035
  65.0882826  28.5725179  84.9273268  66.5920639  28.4993584  85.0831291
  71.3689085  26.2416099  26.3081234  70.6696212  26.8860371  26.4174056
  71.8477992  26.2650191  27.1365844  51.3410156  63.3407510  77.9550609
  51.5512605  62.8398921  78.7432038  52.0853663  63.9316793  77.8411413
  55.1569512   2.5243938  70.7806128  54.3198013   2.9884394  70.7891944
  54.9171402   1.5983550  70.7463397  86.5294267   6.5589555  43.3708441
  85.6779729   6.7879639  42.9982674  87.0841480   6.3836563  42.6107215
   2.5856441  29.6837111  46.0192357   2.0584942  30.1763569  46.6482388
   2.4574117  28.7674974  46.2648792  62.4209700   7.8561996  49.1439030
  61.6852448   7.9471547  49.7494337  62.0333643   7.4888237  48.3495300
  58.2631796  62.7024901  62.8224964  58.2386964  62.3173807  61.9465266
  59.1654296  63.0049030  62.9260486  34.8495949  26.7242324   2.5677865
  35.1868667  27.5938636   2.3527951  33.9963551  26.6847099   2.1357546
  84.7901786  45.5341418  13.2857770  84.5967726  46.2747846  12.7110820
  84.4851492  44.7679204  12.7998823  13.6030824  64.0690705  85.9793430
  13.0896369  64.8582820  85.8068594  12.9548260  63.4125366  86.2342130
  22.3465986  12.3416617  79.7172421  22.9659307  12.9473699  79.3100846
  22.4741699  12.4649988  80.6578511  16.8268675  17.6753188   6.7351493
  16.3082234  18.4471607   6.9620856  17.6921454  17.8510287   7.1048140
  82.6099421  55.5716758  18.7367081  83.4493174  55.8890080  18.4035696
  82.1181511  55.3270738  17.9527799  70.2497406  28.0033952  22.0272694
  69.5458872  27.5982306  21.5206495  70.6682057  27.2728339  22.4826801
  78.0245539  20.5974294  19.4531512  78.9813826  20.5711601  19.4486137
  77.7593281  19.6887328  19.3111733  64.9068703  22.4850070  83.9476821
  65.6371787  22.0763722  84.4123315  64.2788908  21.7746030  83.8165343
  76.7986533  64.4016309  34.1278400  77.3632238  63.8604540  33.5759165
  76.0780252  64.6596585  33.5530804  27.4469864  55.0385280  55.5000556
  26.6402967  54.5727589  55.7203799  27.4659611  55.0451967  54.5430669
   5.2221873  52.8828667  42.3238326   4.8224977  53.3572288  43.0528461
   4.5410719  52.8585760  41.6517288  71.6515536  50.9478115  64.9843432
  72.0709389  50.2436875  65.4788703  72.2884049  51.6622813  64.9979493
  85.4679267  45.9016885  54.3651538  84.6680129  46.2860309  54.7238328
  85.8784331  46.6152944  53.8768066  82.7882370  56.1466384  25.8997654
  82.9573651  55.5512740  25.1695813  82.5300041  56.9689631  25.4834366
  56.0371146  32.7243494   8.0011258  56.3314874  33.6118148   8.2060200
  56.8452911  32.2250163   7.8838700  35.1834215  40.4157109  66.6006118
  35.5274273  40.8975211  67.3527759  34.2325135  40.4765038  66.6917708
  50.7015302  62.6143345  37.0287784  50.3706023  63.3858154  36.5688483
  50.2731825  61.8756035  36.5963127  21.2910309  32.9337573  71.2364294
  20.4115884  33.1012788  70.8976829  21.6054210  33.7917891  71.5213367
   5.4739305  70.6818448  72.0900588   6.1246470  70.7647351  72.7871450
   4.7577054  70.1874170  72.4885491  47.8449342   8.7627663  40.0488044
  48.0917545   8.5637041  39.1456511  47.2432304   8.0595900  40.2931967
  35.1729739  71.6082651  62.7314637  34.4783555  71.4856897  62.0843838
  35.1279034  70.8266719  63.2822019  10.9411902  32.0067669  17.4160490
  11.6647340  32.5914406  17.6415992  11.2664961  31.1312577  17.6255521
  84.3929805  50.4694869  64.7891664  85.3390507  50.6116424  64.7579443
  84.2878503  49.6695120  65.3041611  57.6504069  71.5462013   1.2333690
  58.4944441  71.2043684   1.5282983  57.5412512  71.1874957   0.3526607
  69.2264984  50.2476960  71.6238115  70.0004057  50.1704380  72.1817815
  69.1556708  51.1845818  71.4408899  34.8462803  48.7848298  67.5904334
  35.3504873  47.9768892  67.6865537  35.5042771  49.4799785  67.5967964
  77.6363737  35.3413083  69.6239365  78.5486527  35.3455169  69.9136970
  77.1793576  35.8873093  70.2636637  52.0606846  64.0023442  73.2877154
  51.4116693  63.8331632  73.9706421  52.2441350  63.1408784  72.9129428
  74.5205094  24.6717967  17.9731267  75.3504286  25.1027725  17.7688576
  74.5875053  24.4511488  18.9021358  51.7323382  25.9656251  67.0542449
  50.9200424  25.9994070  67.5594835  51.6165227  26.6250775  66.3701826
  78.6295041  47.8938401  18.9001365  78.9111904  47.5968444  19.7653985
  79.4130364  47.8211301  18.3551391   2.3569788  11.0061836  54.3062508
   2.2214691  11.8832568  54.6648752   3.2962217  10.8498275  54.4042687
  17.9950891  15.9018537  83.8895761  17.3311546  15.3030530  84.2314248
  17.6027641  16.7704290  83.9784010  41.2716053  35.8014771  22.4690009
  41.6794367  35.5458951  23.2963963  41.8591836  36.4648722  22.1072129
  54.0106527  36.3191677  34.0350453  54.3249880  37.2219012  34.0850193
  54.6961153  35.8030387  34.4592903  23.2320813  45.2404384  55.3354791
  23.5008126  45.3165118  56.2510271  23.7896693  44.5489522  54.9788640
  68.7085287  64.3694888  24.6974436  69.1603405  65.0576738  24.2090797
  68.6319283  64.7171749  25.5859697  43.5901903  24.6344921   3.1638867
  44.3852179  24.1855248   3.4512739  43.8495945  25.0928618   2.3646129
  72.3818001  70.9388115  63.0191680  71.8948731  71.1762614  62.2300220
  73.0873217  71.5838259  63.0684387   4.0935072   3.9357940  14.6703482
   3.3999913   4.5904036  14.7525300   3.9535881   3.5456541  13.8075358
  48.0662746  28.7088955  69.8107334  47.4897265  28.9064508  69.0726304
  47.5965711  28.0402659  70.3092763  21.8806762  68.7790309  21.2541450
  21.2221262  68.4504201  21.8661569  22.1745768  69.6046596  21.6391016
  66.3903002  19.8497415  82.6899065  66.7143000  20.2671449  83.4880484
  67.0820587  19.9969000  82.0448900  74.1842012  11.2321351  75.9404380
  73.7774653  11.9674645  76.3987921  74.8661805  11.6333501  75.4017707
  49.8833948   3.7891729   6.4024873  49.0158195   3.8216206   5.9993841
  49.9366804   2.9138169   6.7860814  30.6229742  25.1113218  14.7577406
  30.0042416  24.6393224  15.3150722  31.3506921  24.5012219  14.6375883
  13.1339696  69.9978681   3.7680612  13.2529248  70.9076392   3.4953009
  12.5368471  70.0477405   4.5145123  65.8732041   3.4476607  11.9743670
  65.0217071   3.4375624  12.4114971  66.2633347   4.2837889  12.2291603
  75.0056830   7.8325040  48.9152594  74.3282390   8.5080269  48.8841070
  74.5351892   7.0140081  48.7573614  37.1313916  40.6523570  36.1232260
  37.0373984  41.3217439  35.4454958  37.8283455  40.9820582  36.6904862
  23.1866275   2.3512513  80.7469638  23.9527105   2.9122733  80.6261210
  23.5499922   1.4954417  80.9745333   3.5195474   9.2514739  72.0479015
   3.2130052   8.3455414  72.0085307   4.2887555   9.2690078  71.4784779
  61.5576542   6.5733170  62.9040821  61.1302442   7.2859170  62.4289466
  61.7816927   6.9525947  63.7538980   7.0613318  66.2539557  12.1037590
   6.8769488  67.1236441  11.7489679   7.5081885  66.4234193  12.9331160
  62.6998263  46.4993543   4.2417236  62.2445874  45.6578660   4.2119440
  63.0606336  46.6077473   3.3617799  75.5362513  30.5940640  68.0277737
  74.8051013  30.5360772  68.6428257  76.1448426  31.2095124  68.4365178
  71.7964677  55.5506387  74.4225561  71.4090891  55.2416541  75.2415177
  71.9417831  56.4860692  74.5642783  38.7616790  49.9313457  10.2871579
  38.9663641  50.6257920   9.6609948  38.1101003  49.3906749   9.8406692
  24.8154511  24.0283569   1.7404681  25.2169270  23.7813029   2.5735427
  23.9913149  23.5420075   1.7182078   5.1115915  42.1083675   1.2968778
   4.6782430  41.5401265   0.6600551   5.4637391  42.8288949   0.7743224
  24.7681244  21.5249192  85.4043575  24.8226532  22.2341341  84.7638322
  25.2390310  21.8561062  86.1690758  63.0337785  22.4083274  14.9863347
  63.9880284  22.4760493  14.9538901  62.8593655  21.8400338  15.7365709
  73.4561160  58.2669985  38.8541047  73.3608749  58.8451966  38.0972375
  72.9066715  57.5106803  38.6483732  51.7918424  14.0923492  87.5325123
  50.9430235  13.7592413  87.2413466  52.2899271  13.3085726  87.7645419
  61.4980308  24.6922859   8.0322921  62.4266670  24.9221767   8.0004046
  61.4496758  23.9785749   8.6683034   7.4787149  24.8122148  55.3437504
   7.5222599  23.8793387  55.1338033   6.8659887  25.1735203  54.7032375
  58.8616172   4.4384389  54.0008030  58.7082299   5.2244371  54.5251225
  59.8144673   4.3785395  53.9320953  20.2851972  37.1094307   0.6708987
  19.4326247  37.5141061   0.5109307  20.8304958  37.4032680  -0.0588553
  33.5530687  64.0818582  75.1551302  33.6705442  64.9581387  75.5219597
  34.1523990  64.0520697  74.4093772  72.3719255   5.8799745  53.7235316
  72.1444305   6.6270811  53.1700792  73.1271962   5.4822325  53.2904043
  16.5697304  41.8043407  64.1419587  17.2255320  41.5767896  64.8010312
  16.5277309  41.0371961  63.5710322  39.2450162  70.5169639  79.9303509
  38.7328526  70.3842248  79.1326664  38.6720796  71.0299845  80.5002504
   7.4172387  43.4445691  51.4443954   7.1393048  44.3007706  51.1189672
   6.6881292  43.1469282  51.9884920  19.7060987  51.1523141   4.6387342
  19.3902618  50.6574579   5.3947741  20.6466624  51.2459805   4.7897255
  22.7478247   7.1533576  20.5823338  23.2144375   6.9222458  21.3855098
  22.2557386   7.9422514  20.8097755  46.1244177  65.4276630  70.8758279
  46.8259175  65.8716649  70.3993909  45.5578771  65.0718298  70.1912504
   5.0753088   8.6048211  36.5244358   5.3398545   7.8473941  36.0023710
   4.3949125   9.0297940  36.0022377  15.3300899  70.1752114  15.5110809
  16.1582548  70.2241117  15.0336047  15.5655414  69.8046702  16.3616651
  85.2186428  52.3566528  84.6470882  85.3337371  52.8679799  85.4480437
  85.0525994  53.0100558  83.9675840  29.3453386  19.6948303  11.8085419
  29.2397322  20.2798828  12.5587371  29.4839974  20.2814460  11.0649777
  16.5919618  62.0872156  76.2836295  16.2455572  61.2958344  76.6958812
  16.6965930  62.7071205  77.0054342  78.2521357  24.6763647  23.4757412
  78.3935201  23.8004025  23.8348129  78.4295884  24.5830615  22.5397728
  23.6725405  46.7248287  23.4735584  22.9177411  46.1446699  23.3739319
  23.2951081  47.5679961  23.7242484  77.6223516   6.8133705  30.3753777
  78.0505192   7.6347460  30.6167208  78.2982666   6.1464394  30.4960994
  67.5904028   9.1866993  48.7383534  66.7272713   8.8894437  49.0262336
  67.5610004   9.1190765  47.7839978  11.5463732  29.5634105  83.9244997
  11.8765284  29.5688841  84.8229425  12.3335920  29.5503951  83.3801203
  57.1895101  32.0650866  46.8456002  56.5341741  32.3920785  47.4619141
  56.9031318  31.1748425  46.6414315  45.2884432  48.9298387   1.3687765
  44.9410394  49.0295135   0.4824315  44.9653300  48.0765456   1.6581216
  21.8678806   1.4060546   8.0148390  22.6206454   0.8175948   7.9574627
  22.2224897   2.2128421   8.3884405  48.2156427  40.0327381  13.9995085
  47.4275342  40.3577907  13.5642412  48.3955938  39.1942851  13.5742486
  38.4279079  57.4553641  67.9859451  37.8288435  56.7101360  68.0305410
  39.1962286  57.1178224  67.5255314  81.6488255  51.8301756   2.0755824
  80.8253598  51.7802184   1.5901543  82.2384943  52.3145335   1.4977243
  84.0944234   4.3523736  67.5893636  84.3031562   4.7107096  66.7266599
  84.4512563   4.9909681  68.2066958  12.5300679  53.8826372  12.3265856
  11.8499319  53.5955268  12.9358593  12.0503342  54.1656066  11.5481155
   4.2017686   9.7010176  25.7388722   4.8301067  10.3490908  25.4204007
   4.6009082   8.8568481  25.5284031  12.0416525  37.6819974  38.6328821
  11.6891524  37.4152075  39.4818807  12.8756609  37.2174562  38.5631440
  24.6640517  55.8656552   7.1087883  24.5072513  56.7534573   6.7871473
  24.8589832  55.9788783   8.0390647  24.4461139   7.4853224   1.3056996
  23.5946586   7.1545042   1.0196664  25.0700641   6.8166422   1.0232375
  79.4328651  25.3543275  26.6626524  80.2907328  24.9311613  26.6276498
  78.8573055  24.6969571  27.0535836  57.7511724  55.0338959  33.8430379
  57.0063084  55.1479890  34.4332855  58.4605989  54.7291523  34.4087917
  42.0583986  20.1367769  75.8183080  41.8440188  20.7914560  75.1537265
  43.0006880  19.9982047  75.7228080  81.9698377  54.1484654  34.2329530
  81.7325540  53.2811237  33.9048574  81.9542727  54.0566790  35.1856149
   4.5979179  42.3283566  35.9019890   4.1728953  42.9427852  36.5003744
   4.3377571  42.6246923  35.0297887  57.8392293  38.8841173  10.0409035
  57.4774011  38.0133020  10.2051989  58.7802221  38.7380744   9.9437653
  72.3496547  31.8558919  48.5030392  72.0484384  31.6002381  47.6311782
  71.6128186  31.6540877  49.0797363   8.7337654  54.9577899  30.9290670
   9.1721057  54.9766027  30.0783404   9.4479321  54.9378515  31.5660915
  58.6620193  34.9933610  31.0535839  58.3094643  34.7201740  30.2066450
  57.9176473  34.9360300  31.6526293  53.8036472  14.6124804  54.1235108
  53.5869199  13.8721415  53.5568015  54.3853908  15.1574718  53.5936140
  53.4381986  11.0326560  47.6205007  52.6421945  11.5302536  47.4334017
  53.8508874  11.5041725  48.3440973  38.5476981  35.9758561  63.2151489
  37.7909372  35.7097803  63.7374022  39.2560138  35.4041644  63.5112727
  55.1050273  55.5059526  35.3260236  54.4397347  54.9685480  35.7559234
  54.6214836  56.2583521  34.9849775  42.0153469  36.6009806  18.7178448
  42.6352740  36.7931351  18.0142832  42.3640752  35.8137056  19.1359579
  84.4417653  45.4219706  60.6473577  85.0087230  45.1264169  61.3597051
  84.6191593  44.8120580  59.9312782  59.6406856  26.1811333  32.2386290
  59.1997597  26.4248810  33.0525105  60.2256859  25.4657572  32.4881155
  57.3039765  25.6369092  62.8057596  56.3551461  25.5544547  62.7100831
  57.4507891  25.6304163  63.7516114  28.6986864   2.1482621  88.0199794
  27.8812809   1.6634310  88.1340800  28.6325441   2.8776794  88.6362646
  73.8833169  23.8933872  75.3640747  74.8363433  23.9782943  75.3917022
  73.6009118  24.0711440  76.2612267  68.0753747   9.0636240  10.0097628
  67.3317037   9.4737769  10.4513054  67.7441419   8.8405862   9.1398370
  85.3901059  70.0597784   0.4966744  85.9234749  69.3038579   0.7423032
  86.0216161  70.7683043   0.3725060  17.5835092  64.7961569  30.0525390
  17.9246981  65.6879294  29.9849840  16.7648969  64.8891848  30.5398290
  85.8065539  12.3987075   8.3697595  86.4240441  11.7876207   8.7716433
  86.2394259  13.2503660   8.4291856  24.2516745  38.8205234  73.6423932
  24.1820922  39.6198069  73.1203433  23.5138551  38.8666086  74.2504479
  41.8397484  38.0718152  64.4484076  41.1225741  38.6006913  64.0988608
  41.4074146  37.4032820  64.9798046  62.9497812  68.5579102  48.3632551
  63.3854236  68.6767227  47.5192580  63.4834471  67.9067452  48.8186852
  69.4659202  43.4888246  35.2070046  70.2064903  43.5034535  34.6007260
  69.0273088  44.3284578  35.0696439  65.1929722  34.1894281  15.1798421
  66.1115836  34.4563521  15.1461294  65.1629451  33.5202232  15.8635782
  54.9353840  66.0720125  71.6141388  55.0708356  65.4877343  70.8681471
  54.0292432  65.9151991  71.8797518  67.1957161   0.4427898  48.6225769
  66.5072063   0.2811200  47.9775582  67.7182174  -0.3592217  48.6212969
  32.0095340  25.5860234  76.5036411  32.2537206  24.9571164  77.1826704
  31.0558324  25.5234472  76.4510159  21.8250531  52.6450589  59.2211667
  21.0169081  52.6442216  58.7082020  21.9126799  53.5473079  59.5285757
  69.7204176  52.8772775  37.7766117  69.4864060  51.9491918  37.7878901
  70.4703378  52.9280121  37.1839250  24.2485001  59.1001245  62.1598428
  25.0688238  59.2465746  61.6888298  24.4526723  59.3168451  63.0695558
  85.3772091   3.9229853   8.3092740  84.7853731   4.5661058   8.6996047
  86.0360259   3.7627099   8.9849249  56.4443595  40.3105177  56.8660743
  55.9241386  41.0665550  56.5940271  55.8170212  39.5884307  56.9016945
  18.7961961  27.9768000   7.6254221  18.1543883  27.8173281   8.3174360
  18.2756081  28.0322255   6.8240807   4.1914324  59.2003137  71.6285057
   4.2641576  59.0515676  70.6857346   3.2922200  59.5032471  71.7545226
  16.9387450  61.7827977  16.6839467  16.9927025  60.8273871  16.6613428
  16.4940351  62.0169164  15.8692975  29.5246607  32.4681739  65.8346239
  28.7580033  33.0391422  65.7849906  29.1618768  31.5836753  65.8823935
  80.0265984  14.7817858  43.4554450  79.9101874  15.3482373  44.2182117
  80.4786991  15.3316503  42.8155342  27.2206056  64.2177562  34.3443277
  27.7615129  63.9213099  35.0762913  26.3695605  63.8056725  34.4931263
  33.9831596  47.6176724  42.8369732  33.9948088  47.3661139  43.7604527
  33.1238545  48.0194831  42.7090098  53.1964698  65.6436738  17.7980564
  52.8102256  64.8820246  17.3656934  53.6895913  66.0866150  17.1075015
  71.8164222  53.7699207  35.8391498  71.4121373  54.6132977  35.6354324
  71.9039414  53.3351418  34.9908930  79.0982025  16.2225376   1.2172289
  79.0547175  16.8904856   0.5329874  79.1867271  16.7186925   2.0310013
  11.9233464  53.3098394  43.5949140  12.8381599  53.0323786  43.5462960
  11.4360844  52.5015794  43.7546742   1.2935316  39.7187538  47.5945762
   0.9069954  40.5746374  47.7797381   2.0734826  39.9153888  47.0756900
   0.4281631  28.0218261  30.4089666   0.9682409  27.9498335  29.6219692
   0.7979410  27.3778509  31.0129468  29.2753956  42.3681554   0.8168896
  29.9745719  41.7638558   1.0663016  28.4715246  41.9374346   1.1075833
  18.2508998  61.5524306  47.5592446  17.6788920  60.8196173  47.7873312
  17.8507416  61.9345140  46.7781444   4.9733227  16.0482864  71.9450579
   4.5894224  16.3261788  72.7766998   5.3844781  16.8386643  71.5950781
  70.6032948  11.1855620  43.6245411  71.4674617  11.5971388  43.6317491
  70.0329784  11.8183515  44.0610597   4.4059673  16.1693288  48.5162662
   4.2479700  15.2508400  48.2979841   4.4522041  16.1837911  49.4722395
  52.9927601   9.3446796  30.2820737  52.1275218   9.0110989  30.5193888
  53.0714050  10.1692471  30.7617978   7.7982510  67.6745676  -0.0446045
   8.0992251  68.5585243  -0.2550016   7.8993854  67.6067548   0.9048190
   4.3431159   2.9407171   9.2486671   4.6225229   2.0266654   9.3003693
   3.9064992   3.0100479   8.3996730  79.3297630  29.9301509  84.9044720
  78.8291145  30.3446808  84.2018000  79.6389706  29.1075176  84.5251345
  42.2656825  58.7218269  31.1620838  42.3064767  58.8257063  32.1127556
  42.2431446  59.6170762  30.8240711  13.2710428  53.2647627  67.4406877
  13.7321986  53.2214866  66.6030157  13.7908516  53.8702734  67.9692589
  64.1407542   8.1150535  15.8445841  65.0414023   8.2851391  16.1205112
  63.8434523   7.4094826  16.4190519  84.7797244  18.9698129   8.5867713
  85.2024677  19.1264239   7.7423822  84.1495713  18.2705437   8.4131006
  42.9212168   0.3449658  34.1739150  42.6657582   0.3411826  35.0963891
  43.0743442   1.2679194  33.9715774  86.5674008  71.0411560  33.1784626
  86.2806231  70.1371856  33.0487406  87.5109738  71.0182910  33.0191542
  60.0503196  15.3759842  86.0906149  60.1833072  15.5969106  85.1688028
  60.5795464  14.5902010  86.2273467  28.2383242   9.6087715  10.5647878
  28.8679360   9.9333650   9.9210023  28.7710335   9.3795320  11.3263007
  63.1129057  65.4343829  82.3946201  62.6364980  65.9707072  81.7608822
  63.1579077  65.9770765  83.1818243  70.2758244  54.8438811  19.6201800
  70.1269957  54.0103103  19.1738150  71.0448582  55.2137844  19.1866015
  44.9069807  69.7567614  60.2739544  44.8308997  70.5298153  60.8332676
  45.1404271  69.0487720  60.8743589  44.9918140   2.5945071  78.8131184
  45.1425926   1.7402306  78.4085082  45.8406453   2.8376399  79.1827178
  38.3784413  10.3704610  15.3852241  38.8464637   9.9188617  14.6829102
  37.5597431   9.8834981  15.4792043  30.8720888  50.3469561  52.6838207
  30.8767919  51.0984813  53.2766272  31.1919245  49.6192478  53.2170913
  28.1494826  47.9033878  85.8455605  28.0019306  47.3271512  85.0956194
  27.4634458  47.6653057  86.4691807  79.2055369  35.7231163  80.0970380
  79.5684144  35.9006643  79.2292658  79.1129512  36.5867757  80.4992223
  45.9080432   7.1467055  41.2504721  45.5168697   6.6673105  40.5201328
  46.3737860   6.4786293  41.7534530  62.0771403  25.8792972  27.3468402
  61.2640446  26.2576766  27.0122713  61.8138716  25.4049869  28.1354790
   0.1689733  67.2918518  41.1393879   0.3228746  67.5938267  42.0345736
   0.0653794  68.0955878  40.6299680  60.4437699  66.2290388  13.8447156
  59.9288290  65.4260045  13.9234790  61.3226567  65.9789038  14.1297109
  30.9322164  31.4554693  11.3908440  30.6813406  30.7742516  12.0147315
  30.3985930  32.2118061  11.6346318  29.0791625  53.0115610  22.8946918
  29.1461812  52.7581766  21.9740742  29.4687515  53.8851090  22.9316527
   3.5283385  40.2112693  16.0007571   2.7231004  40.6331498  15.7010233
   4.0597907  40.9281717  16.3469384   7.0388760  43.0397088  63.8237230
   7.4812106  43.5157597  64.5265369   7.4514367  43.3593842  63.0213309
   7.9851976   9.3626339  59.9325422   8.2242795   9.0375162  60.8005112
   8.5300881   8.8574773  59.3290996  51.3621270  63.1959779   7.4409680
  50.8096048  62.5066755   7.0724395  52.2151103  62.7793018   7.5635752
  26.5563349  33.0213739  16.6514966  26.8498548  32.7486101  17.5207939
  25.6010468  32.9831008  16.6983113  60.7705760  54.6315842  67.4600033
  61.5273730  54.9318213  66.9566667  60.3753326  55.4343225  67.8000410
  18.5581385  46.8683675  44.7558272  18.6967402  46.1033407  44.1974765
  18.9168088  47.5998174  44.2532653  48.4857539  69.9544745  20.4471032
  47.5929476  69.8441988  20.7741628  48.6634037  70.8897847  20.5464372
  84.3261026  50.0518991  52.3825724  84.1438709  49.1191949  52.4969684
  83.7146106  50.4897929  52.9746522   5.3674889  51.2648956  64.3029597
   6.0836177  51.7193298  64.7466723   5.8031080  50.6678151  63.6947141
  55.4713712  55.3049123  16.4160845  55.8140356  54.8006066  17.1539794
  54.5971567  55.5757697  16.6964720  81.8039294  17.2174681  53.4135560
  81.2966109  17.9995828  53.6307111  82.2392815  16.9794542  54.2321217
  30.5926793  22.4690734  18.9140810  29.9933760  21.7240172  18.8698253
  30.4940902  22.8031258  19.8056644  17.2199701  18.8258033  86.1337272
  16.9564236  19.6735816  86.4915637  18.1768175  18.8458637  86.1502329
  81.2913930  39.7431680  60.7515219  81.1452828  38.8084856  60.6057394
  80.7524874  40.1759734  60.0893346  60.0440874  70.4646518   8.0803554
  59.5565172  70.1578759   7.3158976  60.8602175  69.9648914   8.0602815
  22.2082852  25.2722280   9.3739238  22.3743141  26.1413787   9.0088988
  21.9527771  25.4383446  10.2813116  52.3076906  31.9404324  22.5224297
  51.6345182  31.6819727  23.1519290  52.6018769  32.7994030  22.8255067
  60.7723033  16.3141086  54.6235212  61.4093507  16.9279266  54.2579668
  61.2991274  15.6943070  55.1280350  83.6109420  31.3196611  68.4610433
  82.7663960  30.8947945  68.3111692  84.2242622  30.8349800  67.9086356
  60.9766775  48.7031319  67.3156242  60.9866062  48.5065197  68.2523615
  60.9292791  49.6581542  67.2718328   5.0955264  16.4373309  65.4808848
   4.9041464  16.9926929  64.7251212   5.6766735  15.7583468  65.1381305
  28.9632714  68.9745263  62.7055175  28.6877271  68.3333739  63.3606745
  28.4548370  69.7593745  62.9098203  21.8759095  50.9141724   8.5261471
  22.5260469  50.7091283   9.1980921  21.0333269  50.8072888   8.9675792
  65.4982058  53.4912280  38.0086570  64.8022873  52.8634918  38.2032760
  65.0951618  54.1165290  37.4063397   2.1073647  22.3140466  36.0082580
   3.0489807  22.1420421  36.0106146   1.8047772  22.0021320  36.8611249
  76.5478394  18.9204097  17.1300715  76.2583570  18.7011972  18.0157225
  76.8348797  18.0862502  16.7585643  69.1110765  47.4791511   3.1716887
  68.7787501  47.4341744   4.0682198  68.5182595  48.0847073   2.7266027
  19.5022893   5.5309228  82.7932332  19.7746388   4.6887825  82.4287373
  20.1708572   6.1480571  82.4959216  20.5093615   5.7403581  24.7659372
  20.4092610   5.0694234  24.0906162  21.0313391   6.4251110  24.3477449
  17.5446741  63.2208467  26.6459057  17.9533010  64.0780650  26.7660414
  16.6293411  63.4176420  26.4467350  62.1813046  19.5118880  47.7241738
  63.0108008  19.2578300  47.3196711  61.9424821  18.7635810  48.2711952
  26.9580593  51.2363544   8.3634465  26.5747561  51.4649107   9.2102478
  26.7313244  51.9700611   7.7920467  41.9874051  71.6755396  66.7319966
  42.0173308  71.4731492  65.7969167  42.8909194  71.5682891  67.0293031
  86.3103533  39.9219451  15.4429396  85.4176956  40.1669914  15.1993285
  86.3214851  39.9768765  16.3984973  24.1795209  53.2876309  71.6472712
  23.2813861  53.4472070  71.3572349  24.0892128  52.9849937  72.5508679
  55.3998144  60.2542578  55.0964165  55.2606187  59.3156711  55.2225574
  54.5714023  60.5732547  54.7383577   5.2644393  49.5811655   3.8134851
   5.8450120  48.8219620   3.7607856   5.7666379  50.2945203   3.4195901
  59.4005809  33.2642924  43.3090744  59.5204921  34.1988393  43.1403289
  58.5863926  33.2138669  43.8098603   7.5900179  41.8072119  18.4991752
   7.1668671  41.2015770  19.1077650   7.8175996  41.2666200  17.7427370
  77.9192421  12.9718809  25.9749412  77.7739729  12.2104684  25.4133545
  78.6618253  13.4254634  25.5761117   8.8490654   3.5510784  12.3236331
   9.3705903   2.9391491  11.8042238   7.9619039   3.1926957  12.2964652
  55.2896449  43.7106906  68.7495003  55.0303416  43.1627799  69.4903022
  55.8306900  43.1380235  68.2058512  26.9852781  43.1179516  78.7562397
  27.3611010  43.5883837  78.0121412  27.7377135  42.7154688  79.1899219
  43.7718571  10.3965104  60.9103050  44.4140559   9.7943420  61.2860786
  43.1236017   9.8271836  60.4957404  82.1694831  31.3558968  78.0089119
  82.3909796  31.4468986  77.0821489  81.8011564  32.2053873  78.2516737
  66.1616130  29.5444125  37.6323521  66.1349215  30.5006168  37.6668905
  65.6019036  29.3158325  36.8902548  21.2579582  66.0041964   9.2319290
  21.6916705  66.5758048   8.5983761  21.0111349  66.5866323   9.9503151
  49.3885812  71.9152179  64.9516042  49.2194847  71.0612563  65.3495839
  49.5339880  71.7231575  64.0252125  64.0903896  14.5361764  35.9224723
  63.2028250  14.2537949  35.7017428  64.6054382  13.7293575  35.9222566
  25.7969368  68.7725881  20.7739985  25.8066865  67.8397287  20.9882647
  26.5703117  68.9002447  20.2246108  62.6203541  35.9299037  13.5331318
  61.8836312  36.4791606  13.2651988  62.3998386  35.0575074  13.2067432
  48.0563626  65.2436984  21.0098729  47.9085573  64.8484658  20.1507009
  48.7471383  65.8893444  20.8608690  19.4800612  47.2826797  53.6561506
  19.5407177  46.9954346  52.7450837  18.6574820  46.9080188  53.9711499
   5.7864218  55.6342540  73.9308429   5.8434275  55.9345847  73.0237686
   6.6287207  55.2107073  74.0962895  16.3983702  54.6796682  10.4988501
  15.5758629  55.0579110  10.1879708  16.1354342  53.8890421  10.9700261
  42.8072928  33.2763575  12.2303287  42.0209369  32.7363297  12.3093620
  43.5324323  32.6599167  12.3323351  46.2132431   7.8640069  66.5000198
  46.3429559   7.0593250  65.9981299  46.4218407   8.5665754  65.8842956
  39.7806758  44.8510099  70.7278936  39.3172831  45.6392734  70.4448039
  40.4900979  44.7493364  70.0933744  44.9879278   0.3840455  15.2123621
  45.5715389   1.0950927  15.4770163  45.5580575  -0.2382452  14.7607669
  58.6402256   5.5281669  62.2013098  58.3824899   4.6064074  62.2141001
  59.5346334   5.5315309  62.5422721  36.8336088  27.4578825   5.0120876
  36.1482424  27.4317481   4.3443888  37.5068438  28.0288965   4.6420478
  51.4465435  34.5478005  65.9008670  50.6213685  34.9611256  65.6469370
  51.2791232  33.6088772  65.8194710  28.0753170  66.5377562   4.7372211
  28.4161079  65.7693765   5.1951360  28.1379636  67.2458964   5.3781929
  31.3132777  20.4123062  16.0101893  31.7418243  19.9477023  15.2913549
  32.0200831  20.8954806  16.4382086  63.6451297  59.2994872  34.6729310
  62.8246210  58.8613011  34.8987412  64.1613052  58.6270542  34.2283767
  43.9750552  33.3572189  87.5736564  43.7585222  32.5859737  88.0976087
  44.9032470  33.5126136  87.7484261  58.1345972  38.4685258  17.9416632
  58.3350495  37.5530921  18.1366809  58.1240986  38.5129833  16.9855538
   7.7991065  14.5514474   2.3687830   6.9852592  14.0669807   2.2303041
   8.1597357  14.6700218   1.4900802  31.3359453   0.0169900  78.1902189
  31.3005435   0.9723821  78.1432676  30.4605556  -0.2682788  77.9284052
  18.9558608  13.4284630  83.0234553  19.2106393  14.3497445  83.0740536
  19.6292212  12.9659943  83.5223945  63.9544433  13.4428437  60.3959782
  63.2722345  13.7848569  60.9737758  63.4809167  13.1305438  59.6249574
  33.3620100  56.0002768  70.7378613  33.5559019  55.2141534  71.2483982
  32.6477971  55.7384294  70.1568555  82.5867194  65.6561890  85.0357774
  82.0641995  65.3159051  85.7620085  82.9971998  66.4468522  85.3859050
  71.9242571  16.7105153  15.6760243  72.7628198  16.6054832  16.1254825
  72.0342585  17.4993032  15.1450391  19.3930485  48.9193331  33.7755377
  19.8856256  49.4133851  33.1201658  19.6110736  48.0041112  33.5992829
  56.7337251  37.8810890  30.1746440  56.5863508  38.8124612  30.0101492
  56.1622247  37.4342189  29.5502032  49.8413355   5.2444138  86.5231143
  49.1610989   4.7307266  86.9585860  49.7606993   6.1193782  86.9028076
  87.0923261  67.9821450  36.5292287  86.2752038  68.2941160  36.1403623
  86.9997978  67.0296341  36.5490604   3.1496514   9.0713492  49.4699776
   3.9041851   9.6491742  49.5841221   3.3015376   8.6426251  48.6277436
  12.1966141  63.4561326  72.4448446  12.6103994  64.1827117  72.9107806
  11.8629404  62.8862685  73.1377722  76.6944613  53.6826483  20.5343882
  75.9541058  53.0805583  20.6091757  76.3474507  54.4295256  20.0465462
  82.6000361  59.0907207   9.6602228  82.6532671  59.1590718  10.6134942
  82.4962319  58.1540314   9.4926825   5.1223424   1.1794592  43.0576047
   5.3538652   1.9269880  42.5063972   4.4029969   1.4977343  43.6030172
   6.8218286  36.0546030  46.4156788   5.9581706  35.6567532  46.5254162
   7.0727121  36.3294795  47.2975701   8.0622955  39.1155067  75.9804491
   7.1895105  39.3980308  75.7072124   8.6581791  39.5661102  75.3820253
  16.2820309  25.2429794  13.9532135  16.7510785  25.7131242  14.6425538
  16.8813512  25.2516745  13.2069083  45.5415042  36.7094637  23.6036913
  45.2237923  37.2418668  24.3329635  45.2399201  35.8235337  23.8047059
   3.3920321  49.5392728  22.4255168   3.2829246  48.6195964  22.1836021
   2.7996828  49.6637792  23.1670371  57.1139746  27.2501795  25.1909455
  56.5367259  28.0105803  25.1216172  56.6933531  26.6887451  25.8421758
  26.9211490  59.3977243  73.0001079  27.7475090  59.1876101  72.5651216
  26.7317103  60.2971190  72.7328363  32.3918754  35.9109038   0.4892850
  33.1160283  36.0542189  -0.1200550  32.5323203  35.0252496   0.8241335
  24.6512761  29.0392319  14.4036665  25.1979157  28.7242182  15.1235160
  25.2073396  28.9606329  13.6285230  69.7867391  56.7115873  63.2670216
  69.3191217  56.5933584  64.0938153  69.1086489  56.6370223  62.5955564
  48.5483203  10.6017009  42.2021980  49.1026929  10.1235351  42.8188506
  48.3975687   9.9838336  41.4868339  76.7687474  30.5094638  87.3196845
  77.3292124  31.2290354  87.0292924  76.1484189  30.3842054  86.6015378
  53.9320148  68.3438763  83.6264665  54.4972736  69.0075870  83.2312420
  53.0649620  68.5191232  83.2607620  63.0213271  26.5068627  12.4008549
  62.8248251  26.1945167  13.2840643  63.4378536  27.3581783  12.5350163
  79.9612140  37.8465467   9.2520446  80.8101437  38.1579169   9.5660488
  79.8211994  38.3193490   8.4316265  70.0851960  49.4562822  62.0790600
  69.6815436  48.8335347  62.6836112  70.4077116  48.9154958  61.3581123
  61.2557412  54.7023779  43.1758499  61.9345665  55.2089935  42.7300150
  61.7392672  54.0842439  43.7238870   5.5517918  44.4025715  89.1012159
   4.9068489  45.0960723  89.2402743   5.1590193  43.8406598  88.4332213
  84.2899932  18.6410106  66.2321677  84.4060299  19.3941758  65.6529358
  85.1808663  18.3611997  66.4426028  48.4609966  14.0498548  76.1052244
  47.7784995  14.6574869  76.3902029  48.7438106  13.6133442  76.9087831
  74.0681295  54.6932261  10.2612440  73.7168074  54.2658606   9.4801145
  73.8905633  54.0769262  10.9717906  22.6568733  42.2503911  28.4899356
  22.3389256  41.3500982  28.4220116  23.3851622  42.2945845  27.8703599
  77.6581075  38.4140077  84.5150074  76.9914814  38.0376533  83.9403780
  77.3112060  38.2889488  85.3983258  57.8087932  16.8548586  62.5787885
  57.0921568  16.2382634  62.4288732  57.6697485  17.5457642  61.9310635
  53.1201753  14.2150641  61.5492671  52.5847221  14.6113695  62.2366271
  53.1806459  13.2919418  61.7950726  59.0381314  45.9952353  80.8715300
  58.7321505  46.8011508  80.4554680  58.2473334  45.5999285  81.2384127
  69.9980756  70.4898092  33.4665185  70.6729451  70.9715165  33.9447873
  70.1125296  69.5802177  33.7417920  36.8197550  55.8571871  76.6472716
  37.3987563  55.9546954  75.8913077  35.9383166  55.8473893  76.2741735
  84.3117165  41.7396197  70.9946361  83.4254769  41.6683031  70.6400587
  84.2405661  41.4010766  71.8871371  73.1535223  32.9930098  17.8494667
  72.4774875  32.4863179  18.2994357  73.3485791  32.4855803  17.0616216
  66.3956673  55.7511483   7.4980828  66.3093819  55.9330362   6.5622925
  66.2273714  54.8120922   7.5760694  67.5153248  19.6550479  13.1023321
  67.3571398  19.0103387  12.4127240  68.4597300  19.8085531  13.0746406
  79.7167261  64.9945231  69.0920451  79.1580090  64.4445055  68.5429116
  79.9809840  65.7146022  68.5194321  55.0595071  67.9330246  65.9596456
  54.4623499  67.1876271  65.8962603  55.0219972  68.1923562  66.8802823
  15.2165062  46.4876204  83.8224977  14.4582958  46.2721334  84.3655577
  15.8995597  46.7268763  84.4489371  76.9576986  36.8338548  64.1624590
  77.7391703  36.3553032  64.4390856  77.2550407  37.3761985  63.4319230
   2.9914836   2.7969640  39.1631852   2.5220871   2.5474812  39.9592111
   3.1808485   3.7281113  39.2786736  69.9046873  68.1770646  21.1300268
  69.0086753  67.9649079  20.8685239  70.3945863  68.2018114  20.3080667
  24.5220520  53.5740307  47.7793185  24.3005139  52.6750315  47.5365156
  24.3969696  54.0771861  46.9746939  32.1471192  62.7881241  61.0380420
  31.4542632  63.3931185  60.7731566  31.6856725  61.9820924  61.2695840
  85.9647490   3.0647568  49.9990520  86.2426251   3.9694229  50.1425650
  86.4396926   2.7898692  49.2147707  42.8833956  42.4475533  48.3712693
  42.3243209  42.1499523  49.0889746  43.6298124  41.8484630  48.3848574
  72.2268026  61.2542608  31.2617283  71.6577859  61.2769288  32.0311034
  73.1040757  61.1108810  31.6167860  17.8195761  17.8611319  10.6846888
  18.6616543  17.4204561  10.7984473  17.6652811  18.3021946  11.5200860
  22.3535773  29.9721291  12.1650656  23.1474766  29.7381609  11.6842179
  22.5011832  30.8751369  12.4461728  53.9677796  35.1375192  80.5676744
  53.3792188  34.9179692  79.8454377  53.4157286  35.6086875  81.1917513
  24.4068745  70.2823903  11.2442789  24.5306433  69.3752202  10.9650739
  25.0736047  70.4189115  11.9173797  28.5267715  68.7223757   6.3651101
  28.7632555  69.5971246   6.6735279  29.2151155  68.1529795   6.7089159
  72.8260720  27.7996009  89.2038231  71.9600179  27.8286411  88.7972042
  73.0306497  28.7144582  89.3972547  22.1223339  36.9653636  80.5768505
  22.7097179  37.5721128  80.1262207  21.5377291  36.6437376  79.8905373
  73.1311112   6.2990283  41.7119823  73.9277417   6.3011393  42.2426490
  73.4448481   6.3444420  40.8087998   2.8379907  65.6748974  63.1638477
   3.7362034  65.8156901  63.4632190   2.4675579  66.5548721  63.0956138
  18.2346238  60.7761005  14.0393290  18.8766425  60.2152235  14.4746000
  17.3869273  60.4081150  14.2887869  80.9136909  21.8757526   4.9919473
  80.2930155  21.9636910   5.7153149  81.3727159  22.7153333   4.9668058
  78.7785377  10.5909181  33.2459412  78.9912789  11.5082614  33.0743190
  78.5110406  10.5749534  34.1648658  66.6203592  49.5757995  69.7192871
  66.2494634  49.0323213  70.4144846  66.9714123  50.3409036  70.1749287
   4.6893630  32.4792176  23.3467890   4.2566875  33.3323356  23.3119558
   4.5274744  32.1646961  24.2362271  61.8746313  17.0929625  68.1663373
  61.5410782  16.4513770  68.7935073  62.8137663  16.9144078  68.1175989
  68.1705105  62.5948730  59.9757338  67.4720267  63.2081571  59.7471842
  67.7136035  61.8352967  60.3369977  78.6973551  40.9210370  72.3598727
  78.1138173  41.6005785  72.0223245  79.5753131  41.2199778  72.1231113
  60.7551445  41.4535522  40.9806866  60.2224605  41.2252512  40.2188742
  61.3431637  40.7068455  41.0942397  78.7605844  42.3464960  29.7624954
  78.8819070  42.9746059  30.4745281  79.3515205  42.6490443  29.0729369
  24.4247106  37.9547527  83.0271544  24.1035278  38.8281338  83.2513841
  23.7197010  37.5658958  82.5094831  79.1264517  19.1768152  57.8191747
  79.9082385  19.6741578  58.0593655  78.4947308  19.3750070  58.5104637
  78.2889630  27.9063482  62.5784393  77.5890073  28.2699284  62.0361264
  78.1260297  28.2639755  63.4512436   2.4880267   8.3225506  55.9273011
   1.8573703   7.7562895  55.4824947   2.3616285   9.1827323  55.5268729
  41.7360465   7.0341240   1.8039957  41.9347798   7.4363188   2.6495583
  42.1023352   7.6391366   1.1589963  57.5551746  48.8275526  83.0853095
  58.4333449  48.5796340  82.7961985  56.9679133  48.3949547  82.4654586
  64.7660836   8.9230068  34.8210365  64.6348547   9.8605331  34.6794196
  64.2777188   8.5031452  34.1129067   2.3071261  13.1676556  75.0697722
   1.6079746  13.7052310  75.4418364   3.1094718  13.6546726  75.2576222
  58.6466596  43.7038732  22.4208930  58.2210112  42.8669759  22.6070603
  58.1635779  44.3406643  22.9475437  56.1382889  59.4832322  82.5894647
  56.0049147  58.7269671  82.0180574  56.7649250  59.1796178  83.2462579
  18.0398665  34.3312530  78.1412284  17.7974891  35.2467160  78.0018991
  18.9769903  34.3583270  78.3343552  73.5649788  24.9225137  31.1531905
  74.4962844  24.7027556  31.1778497  73.3827037  25.2903264  32.0178994
  83.5437774  68.5192573  22.7326317  82.7314476  68.9960041  22.9031154
  84.1873000  68.9278448  23.3115675  57.3441769   1.3497367  64.6665497
  57.3904512   0.5339999  65.1652119  57.0734926   1.0791095  63.7892113
  58.3289874  48.2102219  52.0972129  58.6100697  49.0309722  51.6927457
  57.3778404  48.2913630  52.1676922  54.0395869  52.7724276  47.6712726
  53.4422063  53.5173007  47.7385948  53.8833797  52.2672523  48.4691630
  32.8099322  70.5234737  38.1180736  33.4808930  70.4322064  37.4415282
  32.0280664  70.8057094  37.6434573  12.9289438  13.8654830   3.0924777
  13.3663947  14.1383798   2.2860065  12.1956987  13.3260616   2.7964913
  20.3096734  16.6490348  11.3576636  20.1784624  15.7297587  11.5899284
  21.2578801  16.7734052  11.3985019   6.4518687  70.7696363  39.1732395
   6.0382292  71.5358821  38.7757454   6.0824394  70.7285938  40.0553219
  53.2644415  70.9166300   2.4931479  52.9571213  71.7952382   2.7163827
  52.9191171  70.7581274   1.6145924  58.0572393   8.6427619  75.6430874
  57.7547306   9.5508843  75.6372481  58.7571893   8.6276669  76.2958308
   5.1801795  71.2358354  81.4871832   4.8085711  72.0296793  81.1025393
   4.4360021  70.7998131  81.9022933  58.7834663  17.3196895  46.4887257
  58.4979023  18.0374596  47.0539611  58.4125611  17.5279766  45.6312423
   0.5733720  65.5186285  39.0668536   0.3830402  66.1769864  39.7351130
  -0.1006024  64.8502361  39.1903117   9.8712672  48.9625736  18.4106862
   8.9654942  49.1990492  18.6104020   9.9610372  48.0654449  18.7321413
   2.8583267  50.9824548  36.2116494   3.6587860  50.7708239  35.7313274
   2.6254079  51.8616775  35.9134075  58.8439278  51.0567333  57.6695296
  58.7875914  51.9713522  57.3928886  58.0737451  50.6413036  57.2816267
  35.4981617  68.3552686  11.0452455  35.2675116  69.1897783  10.6370471
  34.8984466  68.2777354  11.7872443  77.3119309  58.8970993   6.5883483
  78.0957019  58.9528157   7.1350022  77.2497866  57.9715202   6.3523968
  83.1286067   4.3920545  43.6719474  82.2365405   4.2448076  43.3576735
  83.0631050   5.1730863  44.2214297  28.9613335  62.3843465  83.7931027
  29.7080640  62.4395062  83.1967951  29.1306948  61.6015128  84.3172400
  28.9097901   6.3432878  75.8102666  28.8690594   6.1960033  74.8653433
  28.0294586   6.6367186  76.0450998  86.7242626  15.7035727  62.0135048
  87.0781348  14.8884930  61.6576235  85.7747782  15.6006216  61.9493762
   8.1102485  31.9234705  76.9055233   8.7350176  32.2042407  76.2368952
   7.2706349  31.8845459  76.4475215  61.9649408  28.5570550  88.4642989
  62.0962407  29.4659052  88.1941442  62.4686617  28.0441647  87.8322858
   5.5271453  34.8767541  69.1958219   5.8221908  35.2146909  70.0413860
   5.8880067  33.9912319  69.1526784   7.5813508  22.6624743  76.4094367
   8.0693300  22.4590188  75.6114931   7.6170556  21.8562360  76.9241567
  45.3961859  24.6381303  72.0390830  45.1638165  24.9422400  72.9164390
  46.1778193  25.1411260  71.8104428  20.7776963  32.9658359  18.5572245
  20.1133051  33.2376817  17.9240452  21.2249280  33.7770642  18.7983141
  11.4861410  70.4974659   5.8319510  10.6857670  70.7031584   6.3149872
  12.1699584  70.4719371   6.5012595  15.7223816  56.3195416  26.7256734
  15.2886433  56.4112643  25.8773280  16.2389517  55.5177325  26.6451171
  85.0398086  60.5030536   4.3329179  84.4894481  60.8485908   3.6301098
  84.6698108  59.6414638   4.5252627  74.5184574  14.0651861  77.1048870
  74.6808065  14.9744368  76.8536145  75.2816735  13.8215206  77.6286810
  51.2064394  48.7489934  15.3303710  50.3498511  48.7709184  14.9037474
  51.1710323  49.4555542  15.9751578  52.9714313   4.4622012  29.6411950
  52.2783618   4.8648846  29.1180004  53.1368014   5.0906396  30.3440106
  69.4475499  43.4789618  67.4779561  69.6024495  44.4233197  67.4573141
  69.8282742  43.1918862  68.3079371   4.7747984  27.3010332   8.4849583
   4.6717698  27.9354587   9.1942686   4.4473812  26.4788039   8.8496073
  59.6475139  29.8906822  15.7289752  60.3712601  30.4145842  15.3855367
  59.8680494  28.9908021  15.4885346   6.0178742  41.6533339  44.2183385
   6.7253742  41.4405291  43.6097420   6.2442605  42.5202745  44.5550802
  16.4334367  62.4432993  33.6356025  16.0623268  61.9227190  34.3479967
  17.1609502  62.9169302  34.0388762  84.4084396  62.6632740   9.4140293
  85.0979020  62.0042089   9.3333665  84.4092066  63.1152055   8.5702347
  29.4190736  53.6988127  30.3227008  30.2554802  54.1642758  30.3226317
  29.6433096  52.8033701  30.5759451  17.1542395  63.5694041  62.0928226
  16.9141342  64.4568098  61.8261910  16.3726566  63.0461767  61.9150784
  44.2158722  46.8393009  86.4188676  44.7374755  46.0453873  86.3011266
  43.3145373  46.5596276  86.2588360   4.3158640  21.3933642  67.3911482
   3.9766318  21.4962694  68.2802848   4.1921257  22.2520555  66.9867104
  61.5848733  39.7313602  44.7257240  60.8436382  40.1665470  44.3045175
  62.3103683  40.3485387  44.6309632  69.8958394  28.3549959  59.4742551
  70.5479700  29.0093024  59.7249352  69.8790908  27.7402699  60.2077830
  51.1280929  20.4227690  62.3110592  50.5878237  21.1215041  62.6799906
  51.9638102  20.4976192  62.7717173  73.8773915   8.1892079  79.3001161
  74.3848410   8.4309022  78.5253189  73.9811807   8.9314608  79.8955322
  46.0918001  50.5770402   3.2706560  46.7306901  50.1610753   3.8494691
  45.9135421  49.9191985   2.5985695  57.4356621  35.5296813  64.5146020
  57.4027906  35.6736182  63.5688570  57.1985032  36.3758573  64.8940408
  75.5587334  70.0617432   7.1494253  76.0570287  69.2447031   7.1688966
  76.2165889  70.7464386   7.2704632  19.0710210  62.0349779  23.5102100
  19.3252411  62.5550996  24.2724942  18.1241658  62.1574474  23.4416659
  44.9449890   0.6389767   5.8477028  44.6675669   1.5545534   5.8791373
  44.6140192   0.3170798   5.0092082  44.1969196   7.5415028   6.2563680
  43.7806942   7.6342405   5.3994036  44.7955321   6.8017528   6.1530968
   5.4202472  40.2748215  12.0736683   4.5340628  40.3320951  11.7164164
   5.3060969  39.8704920  12.9337376  25.3784057  47.4733477  75.8772537
  24.7400330  48.1577407  75.6764593  25.1694957  46.7648797  75.2684338
  80.4395193  34.0884959  44.1955223  80.0850656  34.5274931  44.9687466
  81.1375967  33.5293356  44.5364909  84.7373470  28.1910544  53.1448274
  85.3652450  28.8499266  53.4412452  85.2344097  27.6423430  52.5381345
  59.9937581  61.8106467   9.7197587  59.5186829  62.6402232   9.6714036
  59.8262275  61.3892136   8.8768119  47.3210200  19.9220079  87.0323340
  47.2556580  19.2372159  86.3667368  46.5292635  20.4468666  86.9145336
  77.3644916  70.8647766  16.4646115  77.3898004  71.5981940  15.8500465
  77.0796241  71.2545905  17.2911268  20.2695382  59.9307321  27.6781564
  19.8005855  59.1012429  27.5872556  20.9873612  59.7352937  28.2804569
  28.0903742  50.2690790  63.5361388  28.3476024  51.1152752  63.1700546
  27.1572529  50.1952106  63.3359889  71.5995078  26.5615581  67.1066658
  71.7825219  26.2097005  67.9778339  72.2875159  27.2109676  66.9612562
  72.0667085  70.4238114  68.4266090  72.7227129  71.1208584  68.4226645
  72.4392390  69.7475145  68.9923610  33.8689711  57.3518794  79.3459336
  33.9923246  56.6307920  79.9632250  33.7015323  58.1148162  79.8992180
  66.7928125  37.0206766   6.3720639  67.3142856  36.3224703   5.9760769
  66.3358660  37.4257946   5.6349675  46.1632184   2.5853831  16.3313009
  45.4725051   3.2441327  16.4033839  46.9053501   3.0569003  15.9529572
  34.9310624  48.9952203  61.2314244  35.3473231  48.1332956  61.2247453
  34.0345070  48.8259789  61.5208679   8.0474782  42.1423924  32.5980254
   7.2756374  41.5875024  32.7102332   7.7039367  42.9610793  32.2403065
  57.2947312   7.3396357  18.6969159  58.1387100   7.5458583  18.2951650
  57.5199449   6.8648994  19.4970010  46.1593284  15.5866955  13.4447656
  46.8759858  15.5322565  12.8125708  46.4639948  15.0785146  14.1965385
  52.2582085   0.4915812   5.7177084  52.3731790   1.4417152   5.7016152
  53.1425084   0.1453125   5.8374728  85.3628554  16.2941150  79.7646458
  84.8023515  17.0481427  79.5815899  84.7612484  15.6191366  80.0788194
  79.4685379  34.9573365  75.3123197  79.9876894  34.2010032  75.0390554
  79.8882937  35.2572732  76.1185919  82.8182563  25.6854564  55.4745308
  82.0799031  25.7670853  56.0781889  82.4960546  25.1133766  54.7780090
  49.7773156  23.9822832  24.1626271  49.4118053  23.2429020  24.6483733
  50.4314723  24.3566261  24.7526934  56.0306627  43.0349355  45.4496683
  56.0739286  43.9339846  45.7753532  55.2126880  42.9989147  44.9538339
  51.7233635  35.9212100  82.3729355  52.3812126  36.6125599  82.2987617
  51.5912508  35.8163979  83.3151629   3.6321647  35.6169485   2.5516667
   3.4658746  35.8971255   1.6516221   3.6088370  34.6608119   2.5130601
  33.5534208  49.0916192  16.5867635  32.6075114  49.0843902  16.4403565
  33.6544736  48.8641128  17.5110259  48.7334438  16.8059157  78.8133942
  47.8762269  16.6057200  78.4374516  49.1246451  17.4279381  78.1999763
  69.1602829   4.0649328  10.1524639  69.5615950   4.5121250   9.4073467
  68.4878717   3.5062201   9.7626754  48.9411101  56.9344422  12.3652328
  48.7342385  57.8538563  12.5329039  48.1232806  56.4690626  12.5407566
  83.7894686  37.5913504  21.6167961  83.5761838  38.1691917  20.8841018
  83.6504824  36.7085402  21.2739248  83.2063315   3.9037556  13.0469976
  83.9158239   3.4191713  12.6250611  83.6383778   4.4111640  13.7340963
  12.4547433  64.3149385  60.5912874  12.7708508  64.6679872  61.4229511
  12.7523881  63.4051953  60.5886846   9.0547778  63.8545578  43.4104271
   9.6735885  63.2627631  42.9825438   8.4675920  64.1354084  42.7085954
  10.0826471  20.7856105  86.5067763  10.4211363  21.0981343  87.3458149
  10.8581337  20.7015617  85.9519898  86.4017631  12.1913100  45.0537106
  87.0221394  11.5320352  45.3647120  86.8683847  12.6479384  44.3537202
  23.9090844  56.6889999  40.5643640  24.1220470  55.8391153  40.1789097
  24.7431582  57.1581527  40.5855374  64.5738394  37.4417839  14.7901187
  63.8640016  36.8706951  14.4964867  65.0463627  37.6678291  13.9889588
  49.7971242   6.9102259  61.7974333  50.2785029   6.0943885  61.9349677
  49.8404366   7.0575185  60.8526261  15.2017050   5.4850788   4.5833574
  16.1477576   5.5150154   4.4408088  15.0960656   4.9681055   5.3819880
  61.1849176  45.9156061  10.6689056  60.3759208  46.4154985  10.7778255
  61.8668265  46.4817842  11.0303947  55.0108089  36.6464304  23.9211255
  55.5875462  37.4063546  23.8428883  55.3638966  36.1529879  24.6614467
  44.6468036  17.8227335  65.2636714  44.9063050  17.0391196  64.7790684
  43.7878442  18.0507429  64.9080982  65.8003864  45.7381479   9.7482901
  66.6229585  46.1920872   9.9314463  66.0178833  44.8089596   9.8226945
  20.2720340  51.4460867  22.8641428  20.7407196  51.7570800  23.6386418
  19.7918829  50.6757894  23.1679993  10.1164571  10.6979818  28.5941231
  10.0164477   9.9855818  29.2255629   9.2337322  11.0540709  28.4929834
  63.9515154  11.9092742   9.7389989  63.0997982  12.1884478   9.4030348
  64.5029651  11.8333502   8.9603009  27.8900580  16.1217401  12.4973695
  28.8008740  16.4143589  12.5293109  27.7700076  15.6236756  13.3059185
  43.8016887  51.4802314  79.6581651  43.8811057  50.7440427  79.0515755
  42.9077056  51.4180367  79.9945544  69.6612761  55.7891013  53.0667027
  69.6680510  54.9388056  52.6271766  69.5558351  55.5783312  53.9944365
  66.1474545  57.4173106   0.5055649  65.8389297  58.2858132   0.7639205
  66.5151826  57.5441382  -0.3690337  18.0832217   0.7673463  31.0156625
  18.3219068   1.3168857  31.7621662  18.8456495   0.8036277  30.4380647
  67.4946928  13.4942799  53.9907980  67.4145559  14.2958247  53.4737528
  66.6662839  13.0354600  53.8513170  74.9907862  22.1719263  52.8717562
  75.4019332  22.9402158  52.4756234  75.5067583  21.4321448  52.5512442
  84.3724865  53.6894958  78.3671815  84.4292984  54.4516697  78.9434584
  84.4333270  52.9381365  78.9570878  71.0649881  17.5020381  81.4910689
  70.4552433  17.5167296  80.7533514  71.2855322  16.5771176  81.6011335
  48.7380103  14.6632386  37.6507986  49.5512758  14.5989066  38.1514905
  48.5253965  13.7584300  37.4220006  37.7897705  61.6523147  39.5453582
  38.7469682  61.6515336  39.5473037  37.5495717  60.7263668  39.5113461
  65.7740107  42.9267451  46.8416552  65.5151303  42.5919598  45.9830916
  66.7160598  43.0783329  46.7655202   9.6383142  16.0129987  76.5185847
   9.2485498  16.7546584  76.0557062   9.9212711  16.3763067  77.3577358
  30.5662645  41.9957673   5.9796061  30.6510278  42.6546997   5.2905087
  30.2184023  41.2244888   5.5319978  42.7238606  39.5369114  42.2364370
  43.4816342  39.5253339  42.8211395  42.6742386  38.6455960  41.8910006
  15.5130591  47.5784380  73.7540652  15.7634953  46.6634894  73.6260709
  16.3448373  48.0484839  73.8126630  74.2584115  22.5893641  38.7718140
  74.7688888  21.8406987  38.4633584  73.3776106  22.2396031  38.9063092
  69.6115353   9.8929572   6.4295973  69.8837516  10.7177240   6.0272420
  68.9027079   9.5758919   5.8698963  71.1310540  33.9842236  54.6865977
  71.9039100  33.7806043  55.2133468  70.4018901  33.9432504  55.3053651
  28.6418271  61.1696890   1.8497292  28.9070878  61.9782175   1.4113797
  29.4568812  60.6811598   1.9648719  63.2974839   1.1391957  85.5639546
  63.7985082   1.8626200  85.9406028  63.8057005   0.8683948  84.7993537
  76.2180022  54.2400528  76.3676914  76.3340142  54.5283422  77.2730434
  76.8243296  54.7829857  75.8638832  80.3217603  49.6757983  81.4626000
  79.3916758  49.9013942  81.4793677  80.5872973  49.8217929  80.5546311
   7.3758775  11.6318122  28.1951263   7.0708897  11.1263882  28.9486253
   7.7398653  12.4316159  28.5746771  40.2410945  45.7933204  74.9160933
  41.1004625  46.1967979  74.7939286  39.6753122  46.5140267  75.1930492
  62.3097412  20.6851228  84.0944242  62.8310878  20.3556939  84.8264803
  61.4020689  20.5569676  84.3699949  62.2233668  64.4506375  85.6771631
  61.4674167  64.1897097  85.1511518  62.4429557  65.3275431  85.3624424
  19.6084161  49.9255367   9.6491594  19.1306129  49.1756235  10.0035124
  19.4762980  49.8682770   8.7028518   7.5486103  18.8351819  26.9306480
   8.4306423  18.8037818  26.5601545   7.6560765  18.5291700  27.8312254
  16.6529639  56.2445325  63.6312505  16.6446612  55.9180665  62.7314823
  17.5649728  56.4885812  63.7890855   0.2202522  69.5190216  68.8025507
   1.0580377  69.9581121  68.6557621   0.3230492  69.0836581  69.6487914
  24.2001840  62.8923717  78.9307497  23.6818242  62.5430752  79.6556821
  23.8372051  63.7642906  78.7750717  30.0228361  61.3101636  25.3012928
  29.8074308  60.4296691  25.6088016  30.9218841  61.4537951  25.5967831
  24.2047142  26.9944707  81.4028980  23.6829806  27.6059237  81.9226585
  25.0303701  26.9175969  81.8810346  52.0865752  12.9726083  44.2182678
  51.8104943  13.3987616  45.0296891  52.3482131  12.0920184  44.4872266
  29.7713981  32.7762086  79.6977510  28.9770151  32.3397258  80.0054363
  30.2759606  32.9442009  80.4936324  40.4403220  70.3155234  10.5093358
  40.5437786  69.9761859   9.6203034  40.0575959  71.1848429  10.3908613
  54.2173175  21.8122172  73.1646734  55.0846136  22.1892356  73.3126145
  54.2804214  21.3963599  72.3048407  81.8193652  19.6665252   3.3799375
  81.6130062  20.5773090   3.5899866  82.0905120  19.2838067   4.2143462
  21.0476273  50.1846850  28.7468467  20.1928459  49.8508069  29.0190707
  20.9757185  51.1342710  28.8435284  79.7094470  23.4661322  71.3873559
  79.5634047  23.4187625  72.3321626  79.1569911  22.7737256  71.0245923
  73.7493590  63.7797404  47.6078156  73.0573818  63.1453040  47.7946041
  74.1095669  63.5004140  46.7661157  66.7588255  54.0276626   3.8430447
  66.4704001  53.6452007   4.6717579  66.6031641  54.9665442   3.9455277
  58.6752020  41.9350142   5.6673779  58.9293403  42.5555026   6.3504882
  58.0821644  42.4303773   5.1024410  57.4992006  25.7133764  65.4042899
  58.1155128  25.2702753  65.9874301  57.1205762  26.4099656  65.9406097
  18.4192578  67.3431128  10.9765114  19.3716020  67.4353716  10.9489317
  18.2672276  66.6032429  11.5644835  10.4022590  54.3331601  41.3619571
  11.0765927  53.9858867  41.9458295  10.7716624  55.1510927  41.0291522
  30.8690606  63.5801551  12.3371022  30.1815589  63.2888454  12.9360278
  30.6279462  64.4794574  12.1149515  50.4752827  23.0582927   7.6058606
  51.1158521  22.3652927   7.4456923  49.6577226  22.7172218   7.2432342
  78.7118600  54.0322544  28.3470105  78.1184012  53.2812907  28.3374176
  78.1373083  54.7927191  28.2586048  21.9212401  45.8900760  17.0869676
  21.1207682  46.3784635  17.2792022  21.8803259  45.7243158  16.1451176
  68.9273680  28.8608408  36.5305883  69.3887043  29.1430688  37.3203655
  68.0185513  29.1229429  36.6775120  45.2377957  48.8575950  51.2278681
  44.5766355  48.2762090  51.6034867  45.6407055  48.3422576  50.5290670
  20.5888019  50.6466094  12.1994384  20.1541495  50.4905072  11.3610224
  19.8868308  50.5886295  12.8475949  74.7417598  27.4440030  65.6245945
  75.5496885  27.9406127  65.4947407  74.1303734  28.0759271  66.0028940
  38.9750135  53.6043513  -0.2806525  38.8306941  54.4703345   0.1007619
  38.9467097  53.0060461   0.4659810  22.4513725  41.1959286  87.0744106
  22.6702807  42.1267039  87.1187769  22.2447368  41.0421585  86.1525168
  51.2660109  55.2743866  74.0310597  52.0646301  54.7489488  74.0795815
  50.5627355  54.6326480  73.9320292  50.8117264  47.8253057  36.1086838
  49.8978108  47.7526138  36.3838309  50.8586812  47.3190593  35.2976710
  62.8761855   4.1260741  62.8862085  62.1817837   3.6050968  62.4829460
  62.4917822   4.9962292  62.9924914  67.3483296  25.4507841   5.6681808
  67.4227314  24.7038566   6.2621468  67.3595448  26.2160171   6.2430934
  40.8271085  57.0765544  77.4878363  40.5080512  57.4091814  78.3267604
  41.5864731  57.6234283  77.2865251  19.3917541   2.9856184  27.3879052
  18.8693849   3.3458261  28.1045729  19.9619464   3.7067087  27.1211818
  55.1775439  38.1693619  38.6060481  55.9403456  38.4704864  39.0996972
  55.4190694  37.2944155  38.3021301  25.6455673  30.8662579   6.6511577
  24.7107120  30.7761920   6.8359966  26.0741319  30.3263762   7.3153052
  12.9189931  63.6769476  81.0833801  13.7143066  63.6445678  81.6150378
  12.6899047  64.6057799  81.0514271  52.4370814  32.3217029  78.3922339
  53.3403481  32.0118242  78.4579316  51.9823024  31.8891244  79.1149259
  61.9541100  29.6342415  58.6234277  62.3595687  28.8509424  58.9952846
  61.4784828  29.3163945  57.8559748  62.2661304  12.8032946  58.3925700
  62.1631145  13.1257559  57.4972274  61.6519268  12.0718723  58.4558731
  20.4116849  45.2416223  41.5544715  19.4662947  45.3336422  41.6728001
  20.7780513  46.0483302  41.9167281  58.7847021  39.3489385  14.8633027
  58.7860419  40.3010271  14.7645233  59.5906860  39.0624377  14.4337227
  60.8959895  36.1611158   3.8073311  60.8259279  36.9961462   3.3446785
  60.1063417  35.6815586   3.5569053  72.0891938  12.1790816  73.2007792
  71.4324610  11.5033044  73.0326750  72.8173708  11.9548074  72.6213905
  39.8221123  67.8056004   1.4590042  40.5159545  68.4524904   1.3311442
  40.1492996  67.0153278   1.0292955  79.1619382  68.4081709  22.9504612
  78.9116550  67.7946577  22.2596705  78.3339056  68.6576843  23.3607499
  16.4142923  47.5572287  30.8440760  15.7737721  47.9592664  30.2572784
  16.0577040  46.6883244  31.0286889  31.7093689  63.9135940  66.8418291
  31.3120663  64.7828574  66.8943990  32.6177741  64.0487314  67.1115876
  34.1395484  66.9193743  75.3238290  33.7721167  67.4559217  74.6214454
  33.3827661  66.6651546  75.8519244  62.7214395  52.7860334  68.6832251
  62.6168385  51.9585285  68.2136230  61.9365479  53.2875190  68.4625688
  80.2245324  47.2278312  52.9771530  79.7952716  48.0807182  52.9096930
  79.5458196  46.6442520  53.3162931  70.6836104  34.8370965  21.4534090
  71.2035720  34.0334644  21.4602771  70.5496726  35.0277830  20.5250065
  14.8699419  38.9451997  47.9653627  14.1314642  38.6151497  47.4535527
  14.8969877  39.8819079  47.7702266  83.8419479  32.0955975  71.3439070
  83.6493056  31.3978916  70.7175467  83.9410829  32.8805189  70.8051097
  40.8602013  54.5074976  36.5986273  41.5672963  53.8640688  36.6460398
  40.3697087  54.2668666  35.8126595  58.3520859  59.4977675  79.6974407
  57.8541430  58.7180704  79.9431175  57.6956280  60.1015622  79.3499831
  41.0391245  70.5002523  83.0942160  40.4016703  70.3869953  82.3891935
  41.8870592  70.5150698  82.6503478  67.5133055  31.2419446  24.8287937
  67.7021118  31.9762688  24.2445404  68.2435536  30.6372583  24.6971732
  74.9512420  28.7639587  34.8209403  75.3487740  28.1321064  35.4200755
  75.6918636  29.2537142  34.4633778  74.5112749  60.8844207   0.8281531
  74.5411208  61.4676894   1.5865320  73.5842012  60.6678076   0.7289315
  16.2280885  66.5891135  75.7522188  16.5575826  65.7120141  75.9480811
  16.3314021  67.0723698  76.5719880  19.8349021  46.3081328  27.9907970
  20.1130340  46.8687106  27.2664856  18.8785448  46.3342872  27.9603249
   5.4455438   4.9024442  89.1427505   4.9497885   4.9213016  88.3241523
   5.8255350   5.7781857  89.2128608  32.2397997   2.0840483  83.1320247
  31.4627392   2.1028576  83.6906436  32.0388885   1.4283777  82.4642204
  18.0415136  41.6820596  69.2139335  18.1703109  42.2494928  69.9739747
  18.8753675  41.2228190  69.1138462  54.7166446  27.5304192   9.4883144
  54.4922276  28.4494101   9.6343441  54.4812369  27.0934114  10.3067514
  20.0097143   0.6528245  57.8901313  20.3951234   1.3530243  57.3634324
  20.4873850   0.6859389  58.7189654  82.9248934  35.7542524  39.9748017
  82.2094891  35.5120913  40.5628379  83.3632801  34.9265535  39.7774102
  66.8064644  25.7778002   9.6810864  67.3375938  26.3500249  10.2348845
  66.7439381  26.2426999   8.8467061  33.0485793   3.5762523  14.6208944
  33.0485816   2.8798887  15.2776360  32.4113731   4.2121982  14.9461218
  39.9925944   8.7022093  77.0153988  39.1646943   8.8527966  76.5591788
  39.9768378   7.7717171  77.2393810  67.5626109  65.3919158  77.1240296
  68.2741418  65.7962499  77.6204864  66.8834054  65.2195153  77.7760954
  57.8780005  33.7409332  20.6689848  57.2376179  33.1962719  21.1266812
  58.5967172  33.1433770  20.4625757  34.0037290  49.6885140  58.6278091
  34.2165072  49.6223013  59.5587083  34.4589321  48.9491354  58.2248931
   9.7956713  45.1981987  21.3817098   9.0852936  45.2237192  20.7406606
   9.7648519  44.3103746  21.7381509   5.2891049  30.1469356  44.4689659
   5.6166866  30.1511922  43.5695750   4.5986722  29.4839616  44.4692612
  70.2115971  30.4540963  38.4717429  69.6850524  30.3845487  39.2680755
  71.0985440  30.6301594  38.7856838   0.3016284  55.6733596  81.8156224
   1.0467382  55.8443837  81.2396068   0.6752562  55.6731844  82.6968908
  52.4639216  14.5143727  68.5150021  52.7185116  15.3650031  68.8725545
  51.5632074  14.3888939  68.8136669  13.1088934  29.9740657   9.1010638
  13.0932366  29.5043801   8.2671681  12.1864207  30.0808120   9.3331869
  85.0128575  62.3877036  77.9700915  85.0360470  61.5796486  78.4826745
  84.1177765  62.4324420  77.6338472  64.4268348  31.8114258  76.9146887
  64.4028003  30.8826604  76.6843650  64.8539471  32.2322502  76.1685561
  46.5295497  65.6859707  11.7930847  46.1997576  66.4865017  11.3848948
  46.1739787  65.7061359  12.6815634  41.2252622  59.7320525  84.4050325
  40.5121245  59.2273566  84.0139461  40.9003544  59.9732011  85.2725082
  75.9067752  27.3873611  12.5388503  76.5861541  28.0541411  12.4384481
  76.3762682  26.5556212  12.4754724  77.0672027  21.0934796  37.4081138
  77.6812241  20.7952868  36.7370769  76.8145533  20.2958301  37.8730389
  57.9932468  46.4618728   7.7942247  58.3509711  47.3155826   8.0380376
  57.0716694  46.6345141   7.6015544  10.5731621  43.9978550  36.2817972
  11.3584870  43.5957796  36.6530545   9.8791832  43.7903848  36.9075617
  39.1891518  41.5186950  38.1877825  39.7292802  40.9061935  38.6871171
  38.3974063  41.6247410  38.7151581  55.9845035  61.6647903  28.7978765
  56.0840476  62.6160274  28.7595254  56.5830712  61.3341349  28.1280888
  49.0781001  39.8087972  66.9689950  49.9063846  40.2805799  66.8818305
  48.4206592  40.4965108  67.0741296  48.8925235  28.6521479   8.8709756
  49.5303816  27.9590348   8.7007904  49.0313599  29.2839266   8.1654177
  68.8779733   8.8467307   2.0471780  69.3687439   8.0637195   2.2967164
  68.5423790   9.1927326   2.8741550  82.9839005  66.4928118  27.9463615
  82.3064793  66.2724227  27.3070173  82.7592035  65.9770806  28.7208061
  52.3321079  49.4245985  71.4132668  52.3331795  48.6549081  71.9823074
  52.3210927  50.1680838  72.0160439  52.5274387  41.6694710  53.6689087
  52.8357257  41.8991930  52.7923137  52.4692757  40.7140849  53.6596189
   0.4684068  41.8195355  49.0929172  -0.2914461  42.3279634  49.3763893
   0.6112344  41.1886767  49.7985016  16.7305530  49.9209224  46.4189684
  16.7318468  48.9881988  46.2038946  17.5870604  50.0760918  46.8171512
  68.3340883  47.5002738  26.0997829  68.9700074  46.7851591  26.1209871
  67.8572646  47.3725320  25.2796896  12.1557143  38.5059045   1.1078845
  12.1803122  39.4517854   1.2525782  11.5360077  38.1798154   1.7604652
  58.8718584  26.4611007  43.1522805  59.3324807  25.7491297  42.7082577
  57.9576730  26.3560200  42.8887374  19.5071901  19.8136319  74.5385524
  19.8131068  20.6797255  74.2692407  20.3087871  19.3146918  74.6958190
  38.4849506  22.0901974  73.8181740  38.2697492  22.2205667  72.8946352
  37.7371685  21.6092447  74.1727698  35.9003891  22.7937227  11.3754157
  35.6555564  23.0356017  10.4822285  35.3664726  22.0234225  11.5698445
  70.1459311  52.9645453  22.5452757  69.9253932  53.8336701  22.8802637
  69.3006532  52.5664066  22.3373748   7.9646856  63.0729004  39.2762934
   8.1101860  62.1293161  39.2076620   7.8259599  63.3601194  38.3738012
  33.0094943  67.0995069  67.1967435  33.5545551  67.6442468  67.7645454
  33.6046355  66.4256687  66.8681391  46.1302029  36.9617792  73.1632286
  46.3112999  36.5702705  72.3087366  46.1181296  37.9043744  72.9970947
  82.9271377  37.7933974  89.2005604  83.6801316  37.2238434  89.0429521
  82.8785590  38.3473045  88.4214205  58.4391830  42.5584110  37.3389257
  57.5498169  42.5474965  37.6926781  58.3718010  43.0773809  36.5374509
  31.8117846  56.2386533  50.4563493  32.7569306  56.3541182  50.5543228
  31.5256642  55.8817254  51.2971640  -0.1150597  30.0750243  54.0429600
  -0.0946220  30.8460891  54.6097698   0.7997325  29.9318196  53.8003093
  69.0084112  24.9873169  61.1955158  69.2322644  25.8936201  61.4070246
  68.4699008  24.6956808  61.9311698  58.1632758  19.3558986  48.7200008
  58.3556918  19.1551751  49.6359254  58.7041313  20.1208688  48.5237157
  54.0205195  51.3633536   7.2074301  53.6406851  51.4401203   8.0826813
  53.3855293  50.8426650   6.7155941  76.3534328  14.8491571  11.3468184
  76.3446990  15.8060098  11.3225574  76.4016934  14.5866914  10.4275717
  70.2827995  48.8615704  31.1329306  70.7853704  48.9347029  31.9442912
  70.9424155  48.7146085  30.4550362  28.3281463   3.6931870  76.8090772
  29.0874169   4.1848266  77.1221754  27.6192214   4.3359594  76.7866969
  58.3852510  41.9813531  58.9182181  57.4813191  42.2482759  59.0852244
  58.8938565  42.7869542  59.0107343  32.6108368   1.8982727  58.5496761
  32.3393106   2.4859654  59.2547454  33.3102886   2.3716974  58.0992674
   1.5758941  32.8496113  52.9808610   1.9334888  31.9618832  52.9980887
   0.6770833  32.7519085  53.2952255  14.8729649  57.6830340  73.6944397
  14.8818302  57.6252734  74.6498542  15.3241974  58.5044943  73.4999556
  53.8838446  10.9001624   4.5620173  53.7818480  10.8001085   3.6155408
  54.7940599  10.6574488   4.7318114  63.8216471  43.1760848   4.6989541
  64.3998237  43.8054348   4.2678368  63.5744083  43.6014084   5.5200538
  80.9265208  43.0375306  78.6293325  79.9739946  42.9500903  78.5935566
  81.1086078  43.8610713  78.1767214  65.5988878  36.6790751  49.2627650
  65.2233011  37.1984261  48.5518213  65.2771912  37.0978597  50.0611149
  22.0875071  58.5028172  74.9851270  22.4494902  58.4915691  74.0990832
  22.4885516  59.2676215  75.3980065   3.1524635  55.1919626  17.3158856
   2.6053484  55.8295712  17.7745274   3.9115642  55.6953911  17.0216787
  63.4561727   5.3630472   1.4613258  64.1092043   5.9941207   1.1587902
  63.9052523   4.5184417   1.4266709  21.8733949   4.0632206  63.6155013
  22.5324930   3.4109129  63.8528118  22.3803912   4.8323682  63.3555043
   4.6147325  29.2235881  10.5054852   4.3044971  28.5553551  11.1165911
   4.5090243  30.0487439  10.9789568  57.1094446  11.1080578  84.0423938
  57.8955741  11.6090477  84.2597448  56.7583606  11.5393447  83.2633152
  38.5914401  69.4110465  62.5979840  38.3182949  69.6116611  61.7027872
  39.4481070  69.8288381  62.6863235  23.6152213  43.2143602   0.9405265
  24.3106124  42.9757287   0.3275681  23.0784858  43.8447842   0.4602011
  84.7363076  35.7845442  89.0206494  85.2313553  36.2840768  88.3713215
  84.7357304  34.8885131  88.6839599   1.4495559  17.7046094  44.4792514
   1.7857045  17.1783641  45.2047180   0.5887879  17.9997931  44.7761973
  54.6118859  51.3117835  78.3814086  53.9458959  51.9860914  78.2472516
  54.2603536  50.5372460  77.9423772  36.7734711  51.5271563  51.0371451
  37.3857843  51.0163707  51.5666755  35.9733191  51.0020040  51.0228735
  10.4796448  52.4111091  73.4368585  11.3869357  52.1081022  73.4720986
  10.4128909  52.8704907  72.5997538  33.3102452  46.2645565  38.6029975
  34.0627348  46.5922504  38.1104451  33.4330548  45.3155151  38.6246775
  24.9267775   5.0601143  84.0782073  24.4980085   5.5852345  84.7539571
  25.7363699   4.7563281  84.4887020  74.3536101  57.2170083  22.5898648
  74.4997921  58.1629724  22.5936969  74.9094740  56.8858952  23.2952805
  81.2429208  66.4645921  40.1704716  80.6906299  65.8934228  40.7042994
  81.1917492  66.0925636  39.2900126  81.4884583  53.2954731  48.1923373
  81.8277608  52.5939679  48.7482116  81.4951269  52.9258688  47.3093990
   0.5611482  55.5849876   1.7337768  -0.3857520  55.4466219   1.7121708
   0.7877864  55.5458270   2.6629342  81.4217803  46.1485209  44.5614378
  81.4419192  45.8900136  43.6400257  80.5215932  45.9777993  44.8384741
  13.7369147  66.1406921  77.8435709  13.7997014  66.7211807  78.6020712
  14.6114476  65.7606971  77.7597385  45.2150288  12.6983697  74.6408575
  45.3829984  12.7455076  75.5820249  44.3830682  13.1567718  74.5227864
  39.2715595  50.7388982  75.7383130  39.6302875  51.0700692  74.9149832
  38.3615917  51.0358634  75.7397413  29.1481843  69.8026600  41.8969527
  29.1812026  70.6407799  41.4357623  29.9712340  69.3708149  41.6681932
  50.7800820  27.2057383  88.9085316  51.4786169  27.8138885  88.6668002
  50.1214886  27.7545014  89.3343785  37.3644998  25.6009079  78.4124491
  37.5476350  26.2072925  77.6948203  37.2805526  26.1612285  79.1839577
  72.8771780  63.0581943  77.2786444  72.7923114  63.5651086  76.4711375
  73.1594419  62.1908315  76.9884021  37.2375850  53.6492814  29.1258378
  36.7658060  54.4197803  28.8096292  36.5496711  53.0230046  29.3511901
  51.3411435  26.8015111  15.4156051  51.5114821  26.9232240  14.4815802
  50.5594340  26.2499681  15.4466273  46.4828848   2.8713996  68.2619327
  45.9495549   3.6359449  68.4793299  46.1546322   2.1793265  68.8359682
  65.7109217  60.4522900  84.1079025  64.8509438  60.8428206  84.2633235
  66.1936899  60.6050592  84.9202006  55.3689807  55.9597319  50.0273153
  56.0964297  55.3377856  50.0120599  55.0291699  55.9089820  50.9207272
  50.8897946  19.1510723  73.5428683  51.2517048  18.8045540  72.7272839
  49.9747680  18.8701328  73.5372942  18.2966815  38.3930676  76.9258605
  17.4995147  37.9363499  77.1944974  17.9888823  39.0950608  76.3525394
  77.9852056  19.3267027  82.9075519  77.1696861  19.4529266  82.4225496
  78.2141436  18.4096204  82.7566240  35.3300104  67.7966878  38.4784609
  35.0158760  67.5113179  39.3364326  35.3166839  67.0036524  37.9425978
  70.4966532   1.7100647  24.2261326  69.9676535   2.2781683  23.6660884
  70.1614588   0.8292591  24.0586273  16.7742748  59.8115084  22.9656680
  17.0468635  60.7221205  22.8529166  16.1412724  59.8380729  23.6831874
  71.0212436   7.0997221   3.0534994  71.6406209   7.7973092   2.8390797
  71.2873019   6.3649415   2.5007407   5.7510234  55.2530252  65.9038233
   6.4409517  55.9138068  65.9638108   4.9757637  55.6827246  66.2651579
  52.7123150  49.9950390  60.8792013  51.7799365  50.1628605  60.7423146
  52.7886655  49.8178617  61.8167570  38.7652819  61.8842771  85.6811693
  38.6344914  60.9402434  85.7701978  38.8974209  62.1933436  86.5774109
  10.1937205  48.8763268  71.9040757  11.0635399  49.0308308  72.2725516
  10.3622125  48.4609509  71.0583185  34.2822487  66.3969377   6.2282387
  34.2072153  66.6089414   7.1586452  34.7341664  65.5533219   6.2105023
  12.0874688  66.3105037  52.8633545  12.5678757  65.5481135  52.5405507
  12.3668247  66.4015245  53.7743470  43.0744700  66.9238011  41.8595445
  42.6727694  67.0915518  41.0070609  44.0121322  66.8674918  41.6755588
  58.4446874  52.4178345   2.7702227  59.2361025  51.9054107   2.9354972
  58.6569129  53.2954797   3.0879194  20.9028591  41.0277389  61.1369588
  21.7953659  41.3244936  61.3147234  20.8489494  40.1676940  61.5536701
  44.7899891  63.5845671  10.9419167  45.4754955  64.2492872  10.8751324
  44.0442459  63.9618485  10.4752715  22.8526615  65.9808990  52.3034856
  23.6674155  65.4933887  52.1820709  22.6992895  65.9595922  53.2480780
  84.9382298  57.3887867  45.6726842  85.0026348  57.8319073  46.5186913
  85.6175323  57.7972097  45.1360553  34.3656758  71.2345554  87.7193442
  35.0024264  71.6232243  88.3191084  34.0151987  70.4824566  88.1965705
  20.2004099   0.8837702  29.1284633  21.0917384   0.5424478  29.2010186
  20.1880634   1.3449295  28.2897670  42.5716262  48.9095768  21.6924373
  41.9756089  48.8957801  20.9435683  42.2356866  49.6089129  22.2530667
  61.9567457  31.2644454  65.5206454  62.2550280  30.5833819  64.9178088
  61.0376622  31.4016973  65.2911257  14.9243213  33.8449737  27.3592078
  14.6226267  34.4563978  26.6873650  14.9110498  32.9902351  26.9285367
  81.8973979  53.1026245  29.2897261  82.2475665  53.0328160  28.4016155
  82.6678924  53.2396922  29.8408908  57.5630243  30.2113210  44.3737550
  57.4514306  30.9118721  43.7310989  58.1432202  29.5826198  43.9444073
  57.9513102  51.1392706  69.7003883  57.5491890  51.7988158  69.1351180
  58.1585212  50.4134812  69.1117245  79.6552015   8.6248972  40.6802532
  79.6707959   8.6934718  41.6348663  80.4518207   8.1412471  40.4618219
  60.7089945  64.2371392  76.5921594  60.3454852  64.7335581  77.3254131
  60.3630584  64.6726724  75.8131402  34.9715107  40.4702979  84.7426378
  35.1676790  41.0100506  83.9768592  35.8294925  40.2297639  85.0922696
  84.9316961  43.8724700  57.9796261  85.3057722  43.0243179  58.2182408
  83.9864963  43.7220098  57.9658087  54.8040746  23.4738610  11.7968274
  53.8877924  23.7143228  11.9340747  54.9476164  23.6025513  10.8592420
  44.5373153  25.7874909   8.8820880  45.0362531  26.4851527   9.3070124
  43.6473435  26.1340956   8.8184697  70.0890950   5.6142890  54.9851683
  70.0415020   6.1934117  55.7458151  70.9745133   5.7396049  54.6437560
  64.6088039  33.1867385  81.4305526  64.3390592  32.2683871  81.4405678
  65.3495689  33.2121941  80.8248703  80.0249591  35.3169619  70.5986702
  80.5416249  35.2319895  69.7973787  80.5637190  35.8593776  71.1746518
   3.6041964  50.6465679  40.6786652   3.1426585  50.7705087  39.8492960
   4.5122271  50.8789833  40.4845126  85.8757221  64.2060393   0.7898381
  86.7725596  63.8715129   0.7873243  85.3530059  63.4873371   1.1454598
  16.7647299  34.8147705  18.2343317  16.5657502  35.2117956  17.3863871
  15.9427275  34.4068230  18.5065866   5.9939860  37.6133272  68.2591024
   5.5118910  38.0871247  68.9368429   6.0951365  36.7289409  68.6110417
  50.3813854  25.3100080  21.8612198  50.3266892  24.7820696  22.6577882
  49.8773259  24.8182595  21.2128841  69.7020651  70.8228118   1.0063254
  69.2065068  70.0233851   1.1840068  69.3416997  71.4681581   1.6145168
  64.2840665  13.0340484  74.5491145  64.6670929  12.3440931  75.0908564
  63.6130622  12.5880510  74.0323250  82.7618011  26.8792504  26.1763698
  82.8052735  27.6768564  26.7037848  83.3255595  26.2571013  26.6360860
  14.1734641   4.6387324  71.8491282  13.7392443   4.6234258  72.7020354
  13.4595084   4.7328427  71.2185393  56.7381258  64.1852782  27.9562699
  57.4931500  63.8171924  28.4152723  56.5955782  65.0352032  28.3728507
  53.6092499  64.7492038   4.4808099  54.3985792  64.9219539   4.9939848
  53.7355552  65.2461224   3.6725088  42.2055049  59.1626477  21.1759344
  41.8708940  58.3643013  20.7673878  43.1456730  59.1474279  20.9968138
  50.7999961  50.2578016  27.7152136  50.7740193  50.9904184  27.0997223
  51.5432591  50.4511927  28.2865208  74.9309226  18.4884337  30.8570059
  75.8111656  18.1702620  31.0574323  74.3652223  18.0398364  31.4854766
   3.5483852  47.5328163  12.6669408   3.4252610  48.4729925  12.5360172
   2.9146676  47.1238973  12.0775181  12.2394160  49.8384044   3.1910425
  12.2522961  50.7876101   3.3138213  12.6888343  49.6985883   2.3575520
  66.8442777  12.5443857  64.4448386  66.9108918  13.2134394  63.7635447
  66.9520057  11.7156825  63.9780649  40.3623522  71.3903005  46.7585981
  39.4735506  71.7432778  46.7994704  40.2413991  70.4421480  46.7075195
  18.5825101  39.2572722  55.0364398  18.1297096  38.9934154  54.2354510
  17.8874758  39.5832709  55.6081775  82.3437167  18.9202586   5.8247842
  82.6862064  18.2312889   6.3942167  81.8195528  19.4721659   6.4051999
  15.8886045  69.6591864  36.6759082  15.1361412  69.1878895  37.0335533
  16.1810391  70.2224785  37.3924386  41.1063907  61.3991994  26.9143439
  41.5222333  62.0779018  26.3826769  40.9755649  60.6683307  26.3102351
  60.6954407  11.1183059  34.4148887  61.1437991  10.3926586  33.9805588
  59.9327544  10.7149063  34.8293887   0.4141821   9.0601869  71.5481589
   0.7026513   9.3828170  72.4019312   0.6637583   8.1361034  71.5445063
   2.9372098  55.1654015  62.0676905   2.2867841  54.4632460  62.0552056
   3.7306030  54.7509403  62.4067790  51.7518306  68.6219410  59.5665927
  51.8490201  69.1560386  60.3549618  52.5132697  68.0419631  59.5748379
  53.8023142  29.6209989  15.6567566  52.9017555  29.4769241  15.9473909
  53.7426078  30.3571297  15.0478408  73.0636249  42.7671144  22.0008957
  73.1779019  42.6195496  21.0620682  72.1230207  42.9083115  22.1084080
  46.3581974  36.6224386  60.8318161  45.9239337  37.1934451  61.4655341
  46.0953509  35.7380568  61.0867914  56.9758256   7.4837343  85.7055256
  57.3900363   8.1410095  85.1463738  56.1191565   7.8547109  85.9170116
  49.2397778  55.2225245  25.5944429  48.5955287  55.5305144  26.2318730
  49.5680668  56.0208876  25.1808312  59.0035402  37.9139301  21.7286138
  58.1028766  37.9834339  21.4120603  59.3695790  38.7895034  21.6036382
  40.1511589   5.5069078  71.8086568  40.4129190   5.6429749  72.7192606
  39.8560977   6.3681659  71.5130132  39.6008804   6.1686897   4.9868921
  38.9581056   5.5576429   4.6267613  39.3217134   6.3038407   5.8924482
  20.0427818  35.3181434  74.2807533  20.1603925  34.5224675  74.7996940
  20.7745764  35.3120461  73.6637677  15.1989339  45.2648633  31.5298856
  14.4145395  44.8545295  31.8940058  15.8725375  44.5872629  31.5877454
  72.5610506  59.3582203  29.0328991  72.3960771  59.7017761  28.1548416
  72.3223659  60.0758586  29.6196330  36.0208259  29.5815153  64.7705640
  36.2961928  29.8719376  65.6400810  36.8333146  29.5285394  64.2672872
  85.6721933  49.2482553  48.0496761  85.4848586  49.9291114  48.6958747
  85.2989904  49.5828213  47.2341903   0.2433768  15.6183548  36.8028258
   0.7177825  15.3963331  37.6039984  -0.6304003  15.2494333  36.9318312
  23.2301707   1.0905432  11.3279671  24.1142914   1.3763979  11.0980768
  23.2519362   0.1390580  11.2258206  60.6281470  37.8504661  66.7800177
  61.5236575  38.1816735  66.8477991  60.1108023  38.6111675  66.5155943
  41.4935946  68.8523537  46.9337422  41.5184905  67.9335129  47.2008444
  42.1028852  69.2909874  47.5275413  16.0460524  55.3240534  84.5573842
  16.0369378  54.3789020  84.4062636  15.1441049  55.5370201  84.7969000
  33.7477364  29.4046029   5.2584979  33.5903150  29.9622137   4.4965790
  32.9747672  28.8421509   5.3074706  36.9904796  61.7242244  15.4981597
  36.2296232  61.6861023  14.9186115  37.4800034  60.9249974  15.3036487
  15.7858869  67.1055220  82.4979433  15.4850704  66.2268323  82.2663280
  15.8608947  67.0892577  83.4520613   7.7721641  67.0581334  86.2145194
   7.7722247  67.1908152  87.1624790   7.2658084  67.7936442  85.8697591
   8.8995288  56.8835065   7.3267324   8.0478984  57.0118798   7.7444378
   9.1881437  57.7662530   7.0950174  12.4288335  43.1390093   9.1734968
  12.0936149  43.3134008   8.2940379  13.3790343  43.1008601   9.0644329
  64.4951255  48.1813387  32.3808642  63.6364828  48.4008843  32.0192508
  65.1081085  48.3597574  31.6676668  44.5231455  62.1280659  13.4671986
  43.6080084  61.8559881  13.5359704  44.5659625  62.6193076  12.6467840
  64.7807647  38.4802916  31.4990525  65.2453740  37.7051026  31.8144128
  63.8591448  38.2217818  31.4944187   4.3159469  35.8991324  82.2639128
   4.2917812  35.6492528  83.1876054   5.2474277  35.9975395  82.0667035
  55.0344010  70.8035668  80.6722518  54.4422767  71.5222079  80.8940078
  55.3828139  70.5116763  81.5146532  40.3129407  66.0905039  42.9276267
  39.7059803  66.8240188  43.0265547  41.1256848  66.3961459  43.3304440
  50.4758861   5.4656647  31.7675918  51.1813027   6.0899526  31.5976392
  50.7424023   5.0154996  32.5691854  56.6263948  52.9513597  37.0186936
  56.3805065  52.8321436  36.1013287  57.2273376  52.2290586  37.2013971
   8.3645676  66.3345432   2.4233616   8.3653325  65.5921559   3.0275902
   9.1834610  66.7944887   2.6080113  82.3343013   7.7761198  43.6635805
  81.9194308   7.1774419  44.2846272  82.6091477   7.2157563  42.9378505
  55.5318802  50.3173228  38.2200363  55.6216488  50.1845119  37.2763549
  54.5890229  50.2741318  38.3793675   3.6533502  62.5694205  35.1788583
   2.9376889  62.9857447  34.6985094   4.3594557  63.2155080  35.1640985
  53.8274169  65.0754777  83.8829942  54.3297203  65.4915908  84.5835461
  54.3898471  65.1443969  83.1115318  78.7241120  35.9092987  45.5744542
  78.8466453  36.6705256  46.1416851  77.9466244  35.4733412  45.9232892
  61.2868253  10.8646481  37.3756758  61.0305572  10.2724994  36.6686267
  62.1454890  11.1952642  37.1118167  35.0119778  33.7623918  85.7597276
  34.2295351  33.8267172  86.3073384  35.3134321  34.6659999  85.6656554
  47.0888208  56.8021805  85.5660417  47.4361434  57.3480983  86.2714300
  47.7521980  56.8496765  84.8776329  77.3141605  10.6956786  12.5046130
  77.5248400   9.7839664  12.3030519  77.0022244  11.0583533  11.6755202
  22.2797128  68.7858155  41.1881703  21.5375378  68.1958236  41.0565737
  22.9022390  68.5442677  40.5023513  60.4583973  67.3349992  67.5899899
  60.9940736  67.9285336  67.0636823  60.0895234  67.8905519  68.2766668
   7.8896704  63.8558127  26.8881371   7.2574029  63.6745956  26.1927020
   7.4766682  64.5399630  27.4150142  54.7379035  21.0824981  28.5161608
  55.2595458  20.2838372  28.5952931  55.3559807  21.7420399  28.2011735
  71.8939201   1.2070437  32.9338817  71.8056099   2.1566310  32.8519234
  71.2023647   0.8530372  32.3747196  52.6765373  30.7501895  18.7722798
  52.4820292  29.8217286  18.9001810  52.1221441  31.0119964  18.0372035
   4.3539909  33.4832961  30.4441375   4.9863704  33.8270354  31.0751457
   3.5575873  33.9900140  30.6029148  13.9019600  31.9476391  63.4338109
  14.1575826  32.6588584  62.8463962  14.5966373  31.9189914  64.0917125
  57.8894349   5.7299428  72.0700985  57.3772472   6.4740479  72.3866474
  57.4018089   4.9608042  72.3648501   7.5544162   5.0029048  82.2996499
   7.3016651   4.1485715  81.9497023   7.7212564   4.8415164  83.2282779
  28.6181387  55.8027224  83.7008764  28.8617332  54.8846925  83.5820714
  27.8542995  55.7752030  84.2770917  27.4139027  35.4519724  88.9696704
  27.0464075  36.0833853  88.3512070  28.3366077  35.6962801  89.0415099
  65.6119365  30.5735065  70.6909656  65.9876904  29.8667207  71.2158415
  66.3561131  31.1378751  70.4813921  45.9836285  68.5765508  21.0825880
  46.1057541  68.3981710  22.0150567  45.1755258  69.0878428  21.0403705
  10.8273914  36.3728698  35.0110518  10.3882417  35.9364909  34.2810156
  10.1212539  36.5915568  35.6191453  83.6507653  19.5431598  10.9749918
  84.0624837  19.4279588  10.1185757  83.5697066  18.6552191  11.3231624
  19.6808133  60.3547742  87.1382721  19.5916344  60.9971226  86.4342355
  20.3100120  60.7480217  87.7430011  36.1569010   7.5793752  76.4471785
  35.3361028   7.8861318  76.0619221  36.5514054   8.3644910  76.8269038
  79.8972507   1.9372845  24.3509987  80.1533910   2.2324942  25.2247693
  79.5176334   2.7128201  23.9378800   2.7536082  43.5806702  82.6226068
   3.5017266  43.5617598  82.0257877   2.9843906  44.2419185  83.2750805
  31.3343617  18.0492714  71.9231418  31.0046090  18.8713781  71.5603257
  30.8301643  17.3702989  71.4747967  24.3332546   9.8995091  79.2373770
  24.0639638   8.9816632  79.2016951  23.5538403  10.3662450  79.5388780
  13.6870867  20.3762941  87.7883593  13.8781179  20.6324481  86.8860711
  13.0023896  20.9831190  88.0697581  27.6504446   9.6378289  73.0727019
  28.2870406  10.3504445  73.1288838  27.1504464   9.8254005  72.2783150
  16.7627713  36.0495594  65.8872670  17.2036511  36.8039819  65.4964941
  17.2971425  35.2989891  65.6277991  61.8171300   8.6200451  24.8687927
  62.5039372   8.0279347  24.5623081  62.2772081   9.2593646  25.4126958
  51.9246693   4.6784882  88.5084228  51.6238289   5.1364125  89.2933000
  52.8787770   4.6731967  88.5851183  39.1927888   5.2399751  82.6924270
  39.1369515   6.1944544  82.7380713  40.0771492   5.0669528  82.3696241
  64.2243548  42.4774286  26.9017848  63.6349721  42.3686566  26.1554414
  63.9623966  43.3101395  27.2944708  40.2004217  44.3154832  52.9825407
  40.7077342  43.5253483  53.1684245  39.5193899  44.0255866  52.3755914
   1.0005023   5.8447364   4.5266108   1.8322320   6.0138403   4.9691731
   0.5607281   6.6947737   4.5102698  54.6240901  44.4956789  15.0623859
  54.1445864  45.3070648  14.8951701  54.2659630  43.8714224  14.4312910
  24.7422205  19.5907601  15.3528563  23.9165660  19.7507044  14.8957520
  25.1413970  20.4567342  15.4363961  62.8302607  10.1285141  20.3562281
  63.4029912   9.4754917  20.7584387  63.2029931  10.2705623  19.4860990
  18.7892405   7.7809110  25.1660535  19.1583685   6.9142739  24.9960052
  17.8948442   7.7306816  24.8287642  28.9824101  65.7818451  70.7690318
  28.7680954  66.4502889  70.1182753  29.5183620  66.2405559  71.4160030
  63.4732204  37.1781558  24.6238519  63.9748112  36.3846000  24.8106877
  63.2833900  37.1265175  23.6870864  16.0204614  68.2498835  78.0627000
  16.7764299  68.5397299  78.5733198  15.4266093  67.8685648  78.7093587
   8.6391803  34.4948120  50.6275165   8.7734022  35.2667610  50.0776883
   8.1504067  34.8209940  51.3831205  38.9862690  40.0933201  61.2559108
  38.4162941  40.7703328  61.6206220  39.1280162  39.4838209  61.9802383
  29.7992223  43.7382037   8.3433564  29.1183474  43.0854484   8.5063031
  29.9165770  43.7298801   7.3934140  56.0232639  28.3138661  15.1287986
  55.1122744  28.5894188  15.2307825  56.1223922  27.5835393  15.7395589
  22.8278153  69.4780104  62.1462563  22.4146721  68.6647057  62.4362219
  22.4452627  70.1537675  62.7059327  42.8543108  53.0136074  26.3536210
  43.5521570  52.3757781  26.5033420  43.3060244  53.7891648  26.0209089
   7.0158088  37.1796757  19.0651175   6.6033201  36.4048197  19.4468019
   7.0350076  37.0021064  18.1247280  15.8612637  22.5299253  13.3171616
  16.0001836  23.4659618  13.1730480  15.7889716  22.4420543  14.2675743
  51.0183254  36.9594106  30.4544379  51.7144433  37.5331499  30.1343208
  51.0157199  37.0919069  31.4024198  36.0223572  13.9042179   5.4629385
  35.2497651  14.2546588   5.0196279  35.8758956  14.0982746   6.3887478
  14.6002964  48.2940883  11.7949128  14.7341532  48.1987573  10.8519249
  14.3903736  47.4105878  12.0975530  71.2179996   3.1339609  84.2677856
  71.4031585   3.6384773  85.0598785  70.4549644   3.5646410  83.8823977
  58.0415398  47.7091665  46.1335917  57.7372889  48.5635614  45.8275321
  57.3115783  47.1165829  45.9540570  59.9341291  29.9084349  22.5525453
  59.2793578  29.2437489  22.7663182  60.7700063  29.4441058  22.5965858
  55.9613876  70.4021523  28.4409803  55.8745891  71.2371872  27.9811818
  55.3287106  70.4562324  29.1572393  48.0060952  12.6845209  11.0079016
  48.0815223  12.0049587  10.3380227  48.6789466  12.4622373  11.6514021
  43.6834750   4.4934584  15.5583191  44.5335282   4.9177761  15.4417177
  43.0476574   5.2041781  15.4755834  79.1130089  17.8531726  55.4673849
  79.1864135  18.5846120  54.8543269  79.1651392  18.2595691  56.3324607
  82.9944983  43.0788608  64.9916633  83.1035076  42.1306945  64.9186603
  83.8343275  43.3912916  65.3282726  50.1608533  35.2377314  28.1896558
  49.8828279  35.7718216  27.4455581  50.3324838  35.8700381  28.8874833
   6.1910129  55.6039655   2.7046817   5.3523595  55.3786153   3.1073101
   6.4012220  56.4687321   3.0571340  29.6213668  24.9775509   9.6106093
  29.8465816  25.4281593  10.4245271  29.0447607  25.5876694   9.1507042
  42.5968939  57.8696875   1.7536338  43.4415745  58.3128684   1.6740279
  42.2004614  57.9521665   0.8862986  54.9478311   3.0273342   6.8952476
  55.3871854   2.2951434   6.4627013  54.2132889   3.2398315   6.3194660
  26.6327939  43.0226291  60.3122664  26.6391412  42.0743639  60.1819407
  27.1088331  43.1549100  61.1320958  42.3228377  15.3440916   9.7454085
  43.2117346  15.3100752   9.3919440  42.1331499  14.4421549  10.0037892
   3.3890010  70.7229359  29.2032481   2.4534448  70.7565288  29.4028424
   3.7754173  70.2564157  29.9443777  47.8487999  71.6062524  13.1667288
  48.2348525  71.9821352  12.3755857  47.7138459  70.6832341  12.9521211
  15.0520972  29.0215535  33.5175754  14.9562074  28.1070807  33.2515368
  15.9578253  29.0893851  33.8197135   2.1150717  29.1744472  18.0813021
   2.1110380  28.9019507  18.9988866   2.5804776  28.4732636  17.6252641
  24.3156208  48.9057517  56.3800681  23.5527874  49.3343117  56.7682089
  24.4922512  49.4065018  55.5836493  50.1005016   9.9217993  85.6999877
  49.8392228   9.2687234  86.3491850  49.5284694   9.7566601  84.9504945
  51.8125959  42.5269949  31.1438560  51.3636731  41.7895134  31.5571614
  52.0408743  42.2093096  30.2702446   2.0226153  12.4448402  48.6031031
   2.8297501  12.8665135  48.3082185   2.2874420  11.5537250  48.8311651
  64.7232621  67.5101418  57.6325619  65.6787256  67.5504494  57.5913724
  64.4581692  67.2157638  56.7611841  27.8741107  52.4190328  61.9643884
  27.3274421  52.3432558  61.1823122  28.5061721  53.1049281  61.7492654
   8.7169648  35.3655344  70.2117142   9.1496208  36.2025409  70.0430114
   9.1422302  34.7512110  69.6133932  42.7220116  44.5285344  76.0329375
  42.7166290  45.4824776  75.9542276  41.9326044  44.3251459  76.5346359
  50.9724152  39.9879118   6.6071353  50.1839822  40.3127357   6.1722851
  50.9645212  40.4118188   7.4653150  77.4099370  25.8647878  86.4854795
  76.5789663  25.9746340  86.9477060  77.8369898  26.7186738  86.5543021
  44.4470481  40.3027650  35.9325070  43.5517767  39.9693479  35.9921223
  44.9834225  39.5237826  35.7851272   9.4459828  31.6682982  62.7969624
   8.5591677  31.4895343  63.1097470   9.9340882  31.9077923  63.5847615
  50.5511736  20.8620818  76.1885631  50.7586687  20.1208611  75.6195556
  50.9407143  21.6178904  75.7489687  66.4027449  34.9984831  72.6004507
  66.1266348  35.5080494  73.3622494  65.6182680  34.5174575  72.3369320
  53.4973741  58.8126726  84.9493261  52.7474236  59.1322899  84.4476779
  53.7369663  59.5462905  85.5155701  55.4193758  70.3987194  60.4610460
  55.6328366  69.5071984  60.1856251  55.6178484  70.9395528  59.6966249
  67.9087164  31.2940937  62.9969822  68.1936529  32.1800788  63.2207533
  66.9848976  31.2694523  63.2463483  83.3912912  42.7060709  17.2711038
  82.5240420  42.4579471  17.5913308  83.4509358  43.6455202  17.4446238
  30.4468982   8.5610390  75.3062575  30.0885472   9.1636386  75.9579400
  29.8991965   7.7791497  75.3762856  84.7188916  59.8510097   7.7466582
  85.5003783  60.1783615   8.1920243  84.1033161  59.6581106   8.4538276
  21.8354942  38.2319807  67.5946859  21.8692101  37.3551750  67.9771868
  22.5064709  38.7251649  68.0666937  12.7914156  44.6969763  32.9484663
  12.2446822  44.3865809  32.2266844  12.2949539  45.4204374  33.3310387
  11.3492790  60.9562498  55.2607761  11.4670718  60.4840707  54.4365167
  11.4390676  61.8791111  55.0230855  46.0015871  40.1474353  11.1439785
  45.9770890  39.3109942  10.6792227  46.7564419  40.6050728  10.7738516
  20.6726692  34.8187610  78.2226988  20.8595226  34.2806465  77.4534457
  20.5551055  35.7024138  77.8740322  42.5419764   7.1416460  14.5584056
  43.3143856   7.3798382  14.0456871  42.7564139   7.4081334  15.4524038
  35.9571514  66.8391938  67.2993064  36.4115938  67.6392117  67.5632862
  36.0297022  66.8263202  66.3449467  78.0027489  23.2058226  27.6875471
  78.5429589  22.4679228  27.9702289  77.1476723  23.0430818  28.0857825
  52.6304381  12.6398734  76.9864633  51.8207533  12.2596272  77.3271322
  52.8921660  13.2791395  77.6490862  82.3642961  63.3362774  52.0759096
  82.9163678  62.5561772  52.1296908  81.4784394  63.0148162  52.2436963
  40.4802130  47.4466440  52.0052906  39.9576123  47.0532287  51.3064739
  39.8667849  47.5526912  52.7324026  69.2398003  27.6949648  62.0229282
  69.6451197  27.4153101  62.8437457  69.3159815  28.6490937  62.0310765
  68.0912813  64.5330304   5.7138016  68.3014673  65.4625253   5.8037626
  67.9202974  64.2384648   6.6083559  60.9825113  45.5319300  24.4831484
  61.1565193  44.8797049  23.8045060  60.8368709  45.0180707  25.2774842
  49.3159522  69.8996117  75.9582842  50.1204427  69.4486243  76.2144816
  48.6168813  69.4016721  76.3820624  52.7459919  12.2137494  19.0809309
  52.0482444  12.5253071  18.5044657  53.4885514  12.7866153  18.8894576
  21.2973263  17.5066575  32.9143340  20.3613623  17.6993421  32.8588728
  21.3458138  16.5507038  32.9085747   5.7095562  70.9067113  59.7404856
   6.5071230  70.6285005  59.2902437   5.9379563  71.7489258  60.1338557
  68.8562936  60.6904878  48.2840998  69.8071138  60.7564374  48.1956493
  68.5707647  60.2541839  47.4813894  52.3068465  42.1862193  21.8763536
  51.4573566  41.8381883  21.6052944  52.4939878  42.8803652  21.2443951
  77.2454391  14.9810707  28.1857513  77.5498730  14.5947810  27.3645741
  76.4737184  15.4907972  27.9390574  61.4573741  32.2648681   7.0191833
  61.5514410  32.3620104   6.0715829  60.7847365  32.9020167   7.2596664
  62.3702728  38.6675624  88.9186893  61.5450655  38.5617510  88.4453303
  62.9015611  39.2267044  88.3518341  40.9517880  54.6508191  55.3369663
  41.1138215  53.9410339  54.7155309  40.7119774  54.2069000  56.1503903
  76.1376719  64.7686424  26.5298247  76.8977537  64.7761578  25.9480593
  76.4680852  65.1119023  27.3600244  31.4388499  52.4758944   4.3159785
  30.7319004  52.4540025   4.9609397  31.8631142  51.6216472   4.3965597
  41.0336693  55.3217313  17.7932839  40.7991980  54.4520205  18.1171018
  41.9341721  55.2269919  17.4828792  82.4149171  10.5130403  42.7429335
  82.3195455   9.6021393  43.0211338  83.3586211  10.6719778  42.7627691
  39.7491298  36.4479011  78.7122659  39.6245658  35.9563131  77.9004427
  38.9108710  36.8865481  78.8576718   0.9327223  51.8006513  49.1258459
   0.1566773  51.5514198  49.6277120   1.4038690  50.9786849  48.9893761
  65.3183368  24.7574541  69.8759002  64.5061447  24.2855618  69.6917979
  65.5484289  25.1717286  69.0442355   7.9728185   5.5342802   6.6330583
   7.7925885   6.1789593   7.3172644   7.9242295   4.6897283   7.0809455
  10.8734406  32.5237287  71.2036926  11.1112779  32.7821398  70.3132495
  10.3159812  33.2352169  71.5187408  23.9200922  23.4396782  69.4093638
  24.2768746  23.6541977  68.5474360  24.5903036  23.7341689  70.0260677
  20.6702260  41.2221761  51.5079866  19.9644790  41.8688172  51.5108767
  20.7471530  40.9556883  50.5918544  51.4386752   9.2732953  46.0966571
  51.4366894   9.3521223  45.1427105  52.2164076   8.7506725  46.2921811
   4.8264217  16.9132438  87.9303813   4.4938663  17.7299125  88.3027935
   5.7599253  17.0749377  87.7937872  20.9546353  45.9398744   7.7904801
  21.4131502  46.7259158   7.4936049  20.8696385  46.0552352   8.7368940
  39.0155010  69.8186576  17.6776930  39.1488861  69.4668323  16.7975457
  39.6939641  70.4869961  17.7738350  79.6880674  56.1584048  13.7450871
  79.4278006  56.7757759  14.4287142  79.3913829  56.5640590  12.9304370
  75.3456063  13.7563234   8.0359061  74.6048713  14.3566818   8.1202461
  75.7719263  14.0152245   7.2189280  60.9107671  56.7442366  36.3061773
  60.5954969  56.1085959  35.6636841  60.8853723  57.5829915  35.8456589
  76.5573450  18.9473620   3.4374742  76.5087492  18.9694791   4.3931840
  77.4920949  19.0170127   3.2435072  74.3900711  23.8837400  10.6442077
  73.5917497  23.3965554  10.8480852  74.1621677  24.7980990  10.8122538
  48.7040927  58.9266989  66.5721336  48.7462460  59.8782526  66.4772621
  47.9883171  58.6599621  65.9952900   3.2271888  68.6341995  16.5110177
   3.6692591  68.4126087  15.6914427   2.5596118  69.2719129  16.2582444
  77.7610733   4.5118400  -0.0599553  78.1804496   4.3010655   0.7742686
  78.0075136   3.7918538  -0.6405747  59.1399976  41.9932340  30.8812742
  59.8307589  42.1592243  30.2397699  58.7228073  42.8450865  31.0098485
  53.8453805  55.0435986   7.2265155  52.9937917  55.3221048   7.5633579
  53.6572171  54.2488663   6.7272893  14.9287767  62.9995100  40.5754347
  15.8600154  63.1645106  40.4277823  14.8554015  62.8703594  41.5210393
  19.1338311  66.6976837  47.2597403  18.5668204  66.8831032  48.0083059
  19.7938891  67.3905529  47.2818197  56.4033701  46.7214761  34.9163775
  57.3594058  46.7534107  34.8816233  56.1233915  46.9635105  34.0336187
   6.6169682  36.2567310   7.3104690   7.1665638  36.1653786   6.5321173
   5.9054663  36.8346581   7.0347933  39.3741173  61.4706477  62.1145773
  38.5285757  61.1421418  61.8090039  39.3723285  61.2974586  63.0559774
  83.8524304  33.9040234  11.9581270  83.9243853  34.2517797  12.8470139
  83.8266260  34.6802431  11.3986192  21.8920073  25.3127908  18.4094333
  22.8038596  25.5154404  18.2004113  21.3899488  25.7020606  17.6934457
  71.8317739  41.1859282  36.9240678  71.0208192  40.6898850  36.8121509
  72.5024139  40.6461178  36.5056438  57.7711149  58.7289105  18.1991289
  57.8446380  59.5394955  18.7028930  56.8319004  58.6269797  18.0451222
  65.4266736  13.5046364  84.7920589  65.9368575  12.8384210  84.3315143
  66.0829705  14.0661466  85.2046271   7.0928766  36.7365594  30.9484324
   6.3952923  36.8687827  31.5904021   7.2731380  35.7970400  30.9806976
  24.5841584  66.9379793  60.0509034  24.3084671  66.6083414  59.1955877
  24.0658472  66.4356629  60.6796034  22.9242178  70.7170481  52.2864661
  23.7076323  70.1925023  52.1211022  22.9079849  71.3548284  51.5728803
  79.8151975  50.5769667  16.8991337  80.0623126  51.3809680  17.3560230
  80.5060619  49.9529657  17.1217565  36.0858395  22.4446483  17.0126472
  36.4959583  21.9826255  16.2815048  35.2063712  22.6559192  16.6993870
   7.3220445  57.3885000  50.7016433   7.2303539  56.6098967  51.2508259
   6.7169628  57.2414451  49.9746750  61.2956840  70.9302824  85.8813452
  60.6719373  71.4939849  86.3389601  62.1065361  71.4384909  85.8595524
  10.2024792  54.3910007  69.5767977   9.8522599  53.5058383  69.6771259
  10.2444893  54.5260814  68.6301086  29.4107415  37.0396718  72.3518459
  29.9713764  37.7503399  72.6630870  30.0189810  36.3352837  72.1279845
  34.7460798  48.0314640  12.5797503  34.4623730  47.5132084  11.8266544
  35.4134349  47.4920890  13.0039480  31.4188156  51.2141010  12.9042835
  31.1659347  51.6909421  13.6947932  31.7277146  50.3665309  13.2243431
  47.1268893  29.7542146  48.6711996  47.5974095  29.0357239  48.2485723
  46.8193163  29.3849479  49.4990117  45.7663364  39.7329227  79.4349939
  45.3130307  39.2163456  78.7687402  45.3480081  40.5930261  79.3968424
  75.4323779  56.1253144  51.9947216  75.6359182  56.9792974  52.3761876
  74.4758933  56.0921875  51.9782391  52.7205819  56.2711587  16.9967209
  51.8483049  56.6649460  16.9795121  52.7618415  55.7454483  16.1978729
  18.8132199  25.3969177   8.7144868  18.0844706  25.9794375   8.5004145
  19.5010733  25.9811239   9.0335362   9.9734865  44.2262231  41.8623050
   9.7202718  44.5869701  42.7119966   9.5444305  44.7950659  41.2231175
  73.8681313  60.5984569   6.6149056  73.5976905  61.4742988   6.8905768
  74.6083660  60.3863062   7.1834798  82.1565344  60.5291661  58.2610527
  82.9529576  60.0449257  58.0432150  82.3765779  61.4438738  58.0846368
  51.7396842  15.8638166   5.0374978  51.7974141  15.5858567   5.9516298
  52.3090474  15.2558425   4.5658784  39.7496171  47.6450518  27.3587927
  39.9029271  47.3839446  28.2668405  39.2709553  46.9099373  26.9757504
  32.3069079  17.1451946  80.2768597  32.1405152  18.0874022  80.2487522
  33.1773349  17.0440974  79.8916741  42.9215442  69.1770014  36.0086502
  42.9560571  68.8708340  35.1023929  42.3873748  69.9704992  35.9732097
  54.4119107  51.3903667  31.3962429  53.8142335  50.6845322  31.1496430
  54.0430996  52.1715237  30.9839276  26.1706685  59.5526442  46.4252941
  26.6340205  59.0571000  47.1005516  26.0774334  58.9372158  45.6981168
   3.4312447  32.7987717   2.4269530   4.3558762  32.6745367   2.6410889
   3.2764873  32.2138699   1.6852173  57.3018184  27.9439155  80.5158180
  57.5272142  28.2360103  81.3990559  57.7225302  28.5808256  79.9382551
  35.4112277  46.2821391  63.9821040  35.8392645  47.1269696  64.1209484
  34.5735293  46.5021693  63.5745750   3.9129675  65.4682172  41.9734917
   4.2078348  65.3995935  41.0654301   3.8664287  66.4097270  42.1397007
   2.6786555  13.9869610  64.9123301   2.0603387  13.2634939  64.8098051
   3.1719296  13.9985099  64.0920989  76.0418091  23.8930433   4.5626038
  75.7921074  23.2481199   5.2243853  75.2144558  24.1533814   4.1577058
  64.1258489  45.0221777  39.2796230  63.8475979  44.4604530  40.0029996
  64.9728904  44.6657967  39.0117702  21.8922117  57.4004941  63.0931465
  21.9511177  57.2954515  64.0427401  22.7117944  57.8301653  62.8484047
  56.7668381  70.6061215  39.2410673  56.5905318  69.7471146  39.6248056
  57.5287205  70.9309875  39.7208893   0.9987385  62.5738891  71.7268941
   1.3560382  62.8169824  70.8728013   0.1139549  62.9391080  71.7291303
  10.9197416  41.5208431  38.5955366  11.1121694  41.0328596  39.3962085
  11.3018629  40.9920723  37.8950963  64.5281205  69.1798545  42.0890454
  65.0034255  68.3500646  42.1310669  64.3000500  69.2786921  41.1646824
  12.1618219   2.1962141  76.0694387  11.2169339   2.3492452  76.0694693
  12.4341276   2.3792499  76.9686491  21.8593100  15.8993829  28.9370374
  22.1909312  15.6012947  28.0900412  22.5844449  15.7507504  29.5439307
  38.6015036  56.9625528  10.0195626  38.6908760  56.0100617  10.0512661
  38.1782915  57.1910846  10.8471473  34.4717488  66.9574942  40.9799477
  35.1352816  66.9568756  41.6698432  33.9942325  66.1375685  41.1061696
  45.1063680  58.3771510  23.4635338  45.6789346  58.3228146  22.6983888
  44.7873467  57.4832903  23.5879140  42.8949341  29.1566714  15.9911118
  43.4621547  28.7777501  16.6626110  43.3154307  29.9855406  15.7622227
  35.2412256  61.2500374  57.1112846  34.7516082  61.8008328  57.7221291
  35.0402782  61.6122067  56.2483331  31.7280143  55.2964889  88.0767688
  31.4503051  55.0167304  88.9490329  31.3619786  56.1755548  87.9793374
  14.8494834  63.3990202  43.2025592  15.3896409  63.8407705  43.8577831
  13.9537310  63.6623104  43.4135989  25.0446814  15.1588108   8.8245164
  25.0599692  15.4242119   7.9049728  25.8689136  15.4883683   9.1826574
  79.2086041  11.8298950   2.9634154  79.0277351  12.4312787   3.6858114
  80.1376032  11.6181804   3.0549001  43.9226652  58.3588280  78.7113783
  44.0481630  58.9527208  77.9712611  43.7289701  57.5122103  78.3089450
  26.4847353   4.9743610  88.2956894  27.0217030   4.4123016  88.8542472
  27.0940436   5.6329813  87.9622310   2.9720773   1.0522116  68.7945263
   3.0319267   0.1092922  68.9479959   3.8816469   1.3496512  68.7734392
  60.5230380  62.6416847  71.2924062  60.7607151  62.4832424  70.3788213
  59.7262744  63.1699833  71.2444449  11.1937182  46.4803985  18.6245303
  11.8399432  45.9287611  19.0653492  10.3489678  46.1054696  18.8736425
   3.5229874  67.6717815  59.0723448   4.4157928  67.7638918  59.4049800
   3.0136559  67.3838552  59.8299144  53.1607446  40.3773443  72.4319563
  52.4777672  39.7154367  72.3240114  53.9724368  39.9229881  72.2062391
  15.5753117  11.7769646  86.5266684  15.3223118  10.8755351  86.3275509
  15.3897201  12.2611134  85.7220644  69.4565558  70.4482922  11.3955599
  70.1096619  69.7494329  11.3597816  69.2501420  70.5358008  12.3261336
  11.5892197  44.5046740  51.4433855  11.1913866  44.6874948  50.5921879
  10.9280224  43.9957175  51.9124411   5.2268487  17.3377997  55.7343314
   5.2124116  16.6324502  55.0874115   4.4191688  17.2206366  56.2344893
  83.7028706  66.1123503  88.8700677  83.9396446  66.8483146  89.4344493
  82.7804088  65.9477359  89.0655111  70.4669035  32.2347037   3.6418249
  70.9032288  33.0625820   3.8429952  70.6946412  32.0596250   2.7287450
  49.3442899  23.3908681  70.7554018  50.0767687  22.7816012  70.8476004
  49.0401854  23.2655243  69.8564907  68.7725313  54.0310493  79.3828859
  68.9603349  53.6069080  80.2201826  68.6400503  53.3063853  78.7717045
  36.8373016  71.6755299  42.7637498  36.1746300  71.0071651  42.5894321
  36.7921128  71.8167136  43.7094014  78.1495651   4.0651407  51.2420466
  78.0843859   3.2391415  51.7213260  78.8031231   3.8972041  50.5631571
  73.0441293  26.6155572  59.9823738  72.6758599  25.7322550  59.9627103
  73.5817434  26.6333370  60.7741357  24.6159665  58.0976618  59.2928708
  25.2874743  58.4797434  58.7277842  24.6053259  58.6608843  60.0667564
  80.7264931  68.5524367  74.1535807  80.6625348  69.3477397  73.6247762
  79.8226923  68.2495228  74.2408680  46.6396165  38.7159196   4.5690257
  47.4957203  38.2894229   4.6066909  46.1655012  38.3684931   5.3245000
  11.7828786   5.2342846   4.3866733  10.8571726   5.4156845   4.2242103
  12.2201977   6.0735527   4.2431009  80.7814811  67.5350545  52.5288489
  80.5839773  68.4098533  52.8634399  81.6116024  67.6383481  52.0635954
  14.6186978  55.9691872  33.1351455  14.0045973  56.6715677  33.3490944
  15.0201243  56.2447793  32.3110474  53.2343822  16.4566566  84.4566085
  53.2995849  16.4977358  85.4107012  52.2937289  16.4710235  84.2799823
   8.6984413  36.1951329  74.9384970   8.1835802  36.9308998  75.2698534
   9.0275827  36.4953976  74.0913023  70.1352399  30.2932723  61.7417790
  70.3220454  31.0099942  61.1354414  69.4318210  30.6275358  62.2982875
  29.3966352  53.3356804  43.3217676  30.1642948  52.8711401  43.6551337
  29.0926260  53.8590013  44.0633506  52.0339913  63.1569176  22.4192811
  52.5656392  63.7298539  21.8667175  51.4260820  63.7485504  22.8627320
  59.4586738  39.4637422   6.3868114  60.3973259  39.2810408   6.3445696
  59.3820200  40.3834650   6.1329101  58.0593920  19.7126075  68.9739950
  57.6789762  19.5944669  69.8443734  57.3566269  19.4710902  68.3706522
  38.0724769  60.9958585  81.2923981  38.2189557  60.7489787  82.2055389
  37.7131148  60.2073407  80.8857896  73.8954527  48.9223480  58.5287735
  73.7201809  48.0209628  58.7989888  73.2260084  49.4407158  58.9752832
  85.6954295   4.2370586  70.5829707  86.0082675   3.3325550  70.5675586
  85.9120296   4.5504766  71.4610854  82.6899818   7.4728527  55.0908281
  81.8036828   7.7705127  54.8856342  83.0278222   7.1364134  54.2608255
  16.9425140   7.5457991  85.3540480  17.4826888   7.3766425  86.1259476
  16.1489276   7.0307350  85.4995181  26.3270141  63.8445991  62.3189273
  25.9267388  62.9795916  62.4070957  26.2970721  64.2134715  63.2016891
  85.5980288   4.6033904  44.9745040  86.0856845   5.3437369  44.6135182
  84.8742699   4.4718283  44.3620531  47.1046117  10.4952810  74.9018044
  47.3290342  10.1425077  75.7628604  46.4008053  11.1204606  75.0751218
  39.1170378  69.6141767  22.1141491  40.0685952  69.5706532  22.2083625
  38.8190555  70.0703865  22.9011123  84.6185423  67.7741922  46.3161477
  84.7618086  68.5359485  45.7545128  83.9598973  68.0628708  46.9478780
   5.2429023  69.3858078  79.2374980   5.6035973  70.0047469  79.8723566
   4.3046233  69.5747880  79.2252191  63.9062000  10.8088292  17.8827041
  63.6649762  10.0493154  17.3524384  63.8469450  11.5501964  17.2801303
  82.7275179  11.1469510  87.5544603  83.1136904  11.5925904  88.3084550
  82.2689130  10.3951704  87.9296128  76.4541482  37.0826540  43.4271888
  76.0383647  36.9062051  42.5832566  76.2154362  36.3334928  43.9730880
  68.0025169  54.8984775  88.5448189  67.8179650  55.8374252  88.5213750
  67.9859568  54.6742861  89.4752467  18.6898263  45.0251967  15.3640936
  18.9907903  44.4026584  16.0259838  19.4806764  45.2593192  14.8783214
  10.2998822  55.3677565  54.7807449  10.8911280  56.0982081  54.9626811
  10.8613921  54.5929820  54.8064921  36.3302228  54.0457162  50.4709593
  36.6121018  53.1994700  50.8182968  36.4128537  53.9545367  49.5217015
  61.8451211  34.3881745  11.1517057  61.0042729  34.2098203  10.7305217
  61.9495286  33.6801956  11.7873918  52.8708950  46.6096874  15.7666918
  52.8275998  46.9678431  16.6533044  52.2299928  47.1193093  15.2709481
  72.7301093  19.1665920  41.6621689  72.9864515  18.3188567  41.2990361
  73.5370646  19.5211361  42.0354697  50.4683119  34.0254181  62.8505172
  49.5254963  34.0338250  63.0156230  50.7996287  33.3078148  63.3904306
   6.0731358  53.5056443  52.5103155   6.5652893  54.1842787  52.9723461
   6.4837075  52.6848707  52.7823327  62.8862196  70.7330870  34.1086974
  63.4760396  70.2087800  33.5669904  62.0097969  70.4317157  33.8693431
   2.6621689  40.0524361  22.8683278   1.8854109  40.3490126  22.3940692
   3.0901836  39.4413967  22.2686061  13.9907443  62.9553219  78.5107061
  13.6053783  63.4530685  79.2317978  13.3416152  63.0083719  77.8092441
  52.9515600  16.5864524  87.5069727  52.7956998  17.0088898  88.3516537
  52.4816430  15.7545538  87.5648917  72.2245202   6.7713718  80.5618359
  71.8489786   6.2876822  79.8261426  72.9725784   7.2357250  80.1863137
   6.9536638  42.4889054  14.1852301   7.2017811  41.7836783  13.5874639
   6.8840045  43.2630277  13.6265583  39.9536475  15.8748969   2.8730484
  39.5685314  15.0286575   3.1006363  40.2455643  16.2378601   3.7092745
  25.5761850  67.4210679  81.7673101  24.9084634  67.1734379  81.1277329
  25.8571908  66.5915633  82.1535609  83.5947768  38.3806699  25.5716856
  83.7390445  37.9795129  26.4287106  83.6017871  39.3222545  25.7437357
  79.5299876  53.1142564   0.8482959  79.1620775  52.7237033   1.6409764
  79.5227578  54.0559582   1.0196941  74.4519285  59.2212259  87.2718784
  74.7531273  59.3051213  86.3671836  75.2424522  59.3364428  87.7991630
   8.2579282  47.6587834  30.2906225   8.7785871  48.3514740  30.6972255
   8.4809232  47.7059058  29.3609535  13.7800223  24.8412199  86.2589484
  13.3505059  25.3172198  85.5481942  13.5059092  23.9320792  86.1382961
  65.4442886  68.6613787  29.7807260  65.5215561  68.9878959  28.8842618
  64.6634281  69.0936471  30.1266055  26.3721520  28.9790165  12.3910018
  26.5406544  29.9212380  12.3834237  26.6910316  28.6718449  11.5423598
  63.7333602  58.8119874  53.5266909  63.9271259  58.2504679  52.7761028
  63.8875886  58.2542657  54.2891815  28.8866607  41.6486440  87.2504780
  28.8728215  42.0425307  88.1227701  27.9974286  41.3182138  87.1227515
  58.4151144  54.0296272   8.8364865  58.6412728  54.8797955   8.4592624
  59.1175809  53.8504224   9.4615132  29.9852467  33.8687990  12.1314064
  29.9122628  34.8028019  11.9350810  29.9561738  33.8219340  13.0870163
  56.9961228  51.7444319  11.9446798  57.2975510  52.5277042  11.4844001
  56.7830294  51.1240822  11.2475505  62.0165103  13.6029740  51.6364027
  62.8001599  14.1526188  51.6403577  62.3520592  12.7078085  51.5882628
  79.4899750   8.7395200   5.5080485  80.0905515   9.4828319   5.4530295
  79.6372892   8.3767138   6.3814911   8.8470549  29.6449532  86.4254885
   9.4481866  29.2199192  85.8137544   9.3904230  30.2786270  86.8939332
  25.1919819  47.0647267  31.7967978  24.6804135  47.6398999  32.3657490
  25.5462714  47.6464809  31.1242854  71.8351270  22.6168423  70.7352685
  71.8242844  23.1527437  71.5283158  71.2758548  21.8686310  70.9441374
  82.1247870  59.7625583  87.1604293  81.9796361  59.7289884  86.2148945
  83.0170215  60.0962937  87.2540784  43.1419441  41.8332395  73.6210904
  42.3462877  42.3628742  73.5696150  43.3672354  41.8292395  74.5513913
  79.1673009  21.8009096   2.4987777  78.2415007  22.0363825   2.4381287
  79.3813609  21.9076213   3.4256126  21.9969651  68.4357751  31.6052501
  22.5537429  67.6962684  31.3616108  22.4366061  68.8283110  32.3594803
  39.5441697  65.1472302  67.0402208  39.9103152  65.5052203  66.2315105
  40.2268099  65.2898097  67.6958924  55.7335982  26.3020552  29.9484616
  56.1010046  27.1522143  30.1902753  55.9856597  25.7196368  30.6650408
  80.3965798  42.4213849  67.3674672  80.1908789  42.7984616  66.5120538
  81.2979792  42.1109281  67.2818664  16.0963995  52.3207021  25.9449224
  15.4883292  52.9620074  25.5772134  15.5359001  51.6090039  26.2540468
  33.7683290  71.7695240  80.5451498  33.6675221  71.1654009  79.8095513
  32.9367699  71.7144442  81.0160080  85.9178807  38.6570236  23.2824154
  85.6945271  38.6108405  24.2120455  85.1904000  38.2203631  22.8393226
  39.8438517  58.9074467  45.6990837  40.5218387  59.2752628  45.1322709
  39.6737825  59.5930533  46.3450341  67.4760097   0.1711655  74.0411684
  67.1276706  -0.1598125  73.2133125  68.3667574   0.4516853  73.8311469
  56.8672923  53.6177258  50.0569171  57.5958680  53.5226601  49.4434257
  56.1315783  53.1846728  49.6239947  75.5726197  69.4684787  28.2113363
  75.0269640  68.7587465  27.8725563  75.6496924  70.0813028  27.4800783
  38.1848295  51.7335242  47.5167831  37.6749887  51.0167973  47.1391635
  38.4361410  52.2705433  46.7653279  20.8464421  19.7199329   7.2458309
  21.6313528  19.3098523   7.6091227  20.1204834  19.2898583   7.6977728
  53.4140096  71.2565723  22.8959607  53.1106375  71.3879889  23.7942518
  52.6253688  71.3473007  22.3611281  22.9866379  15.3994443  84.7306046
  22.2087997  15.9527251  84.8018787  22.6519990  14.5054658  84.8016763
  73.8658791  45.2217651  52.5320949  74.7758171  44.9712413  52.3724629
  73.9249984  46.0625839  52.9857032  17.6296070  57.9814192  17.6116225
  17.3989703  57.1796561  18.0808927  18.1526365  58.4829573  18.2370276
  77.7105429  27.5057323  68.9445647  77.7332189  28.0037147  68.1274165
  76.8174603  27.6194927  69.2696706  78.2321280  66.0654941  43.7528911
  77.8392253  66.1243293  44.6237514  77.4856223  66.0021656  43.1571138
  56.7263218  61.0203350  64.4208608  57.2220086  60.2014871  64.4170456
  57.2398762  61.6137463  63.8728127  31.5184033  68.7468957  65.6037491
  31.9615095  68.0289696  66.0559338  30.7896684  68.9789926  66.1793430
   3.0431295  41.4828700  20.2071407   2.3129387  40.9466917  20.5162782
   2.7131638  41.9013896  19.4120333  84.9503242  59.3397064  18.3527036
  84.3599395  59.5625736  19.0724312  85.0520133  58.3897557  18.4117369
  71.6894354  66.2472366  16.3167904  72.6184504  66.4770044  16.3360183
  71.6619769  65.3360399  16.6086781  68.3654141  16.7847806  79.5555134
  68.8865316  16.5956873  78.7751852  67.5703263  17.1975356  79.2183184
  65.4438237  64.7261070  79.0630426  66.3036927  64.4949304  79.4143466
  64.8232895  64.4008158  79.7152348  31.5277283   9.7221478  89.1309101
  30.6900398   9.4399570  89.4981678  31.8743801   8.9420273  88.6979247
   5.9948072   5.8823841  14.0578052   5.6846908   6.7842814  14.1392964
   5.2291305   5.3462701  14.2640883  48.9726290  52.2178376  33.1707381
  48.5238006  52.9337626  33.6204452  48.3463814  51.9192366  32.5112813
  67.2309810   6.6328978  72.3372688  66.3273687   6.3491825  72.4759134
  67.7595696   5.8670505  72.5615538  12.4402815  49.8640134  35.4794924
  12.0629601  49.1260521  35.0006672  13.2176110  50.1043785  34.9752947
  54.5945127  39.0696853  68.6316977  54.2068141  38.8697372  67.7796752
  54.2078947  39.9095037  68.8796158  69.6850657  41.6872440  40.1364880
  69.0197054  41.0913686  39.7923078  69.6437976  42.4507080  39.5605962
   0.6049471  46.5485493  26.1294172  -0.2720070  46.9314206  26.1050657
   0.9905871  46.8845125  26.9385170  86.0163251  55.9134113  33.9768424
  85.4407670  55.8030807  34.7336726  86.8722184  56.1162443  34.3543834
  44.7754342  62.4706766  70.7229057  44.0900686  61.8027949  70.7438806
  44.6822614  62.8825766  69.8639010  43.6535667  45.9781032  48.6768077
  44.5262545  46.3414619  48.5264142  43.8064547  45.0473075  48.8395238
   1.6251905  59.9427692  72.4931979   1.3961660  60.7352864  72.0077125
   1.6091960  60.2115555  73.4117457   0.3928520   3.3935285  33.9081028
   0.7825646   3.5224383  34.7728214   0.9501644   3.8990682  33.3164405
  16.9311670  11.2001430  74.0206731  16.1690488  10.6267968  74.1024162
  17.6218493  10.6330334  73.6777788  86.3269415  62.3792399  67.8812959
  85.9012210  61.5700685  68.1645547  86.2597671  62.3637019  66.9265823
  57.4026740  28.4529110  40.8678242  57.0514581  29.3164387  40.6505706
  56.7899314  28.1005991  41.5133120   7.6089230  59.5444279  52.2629210
   8.0903327  59.2875043  53.0493476   7.3518710  58.7160055  51.8581094
   4.7275636  46.1669132  35.7111005   4.1626519  45.5174207  36.1297484
   5.6103898  45.8069085  35.7962264  36.9470843  10.2778153  76.9184125
  36.2759090  10.9396092  76.7517259  37.7645280  10.7732277  76.9692472
  24.0940247  44.7572699  57.8744319  23.9860639  45.0074101  58.7920409
  24.4930787  43.8878879  57.9085302  55.7300648  26.0548161  83.6257421
  56.0632189  25.1650272  83.5094844  56.5082582  26.6101077  83.5778029
   2.8986820  24.3465881  14.8172217   2.5225918  23.7837461  15.4939763
   3.7918985  24.0214984  14.7044707  16.4588504  69.4451744   4.8585748
  16.8304565  70.3109964   5.0273738  16.8036158  69.1998006   3.9999943
   1.3478759  58.7364522  57.6896396   1.6553608  58.7377281  58.5961071
   2.1304727  58.9229491  57.1709942  55.8818710   1.1411322  26.7755410
  55.8546366   1.4307166  25.8636030  55.4172706   1.8249756  27.2579687
  69.7977593  31.5172385  57.7090825  70.2683386  31.6556350  58.5310517
  69.7563508  32.3852417  57.3077253  86.1271335   8.4513377  60.9097699
  85.9007716   8.7336802  61.7959273  85.2850445   8.2595138  60.4970697
  28.5506463  11.4750841  15.2125613  27.7673089  11.9879119  15.4116141
  28.2471013  10.7999055  14.6057450  53.6160085  38.4613181  13.6055395
  54.5693136  38.5470571  13.6150271  53.3484340  38.6632467  14.5021223
   5.2773980  28.1828919  37.6782032   5.0501019  27.4170348  37.1509165
   5.9219440  28.6543206  37.1504274  53.0843166   2.0093948  49.3816587
  53.3310322   1.5351055  48.5876732  53.1256685   1.3518545  50.0760380
   9.8741039  51.7891888  77.0414950  10.4407914  51.1238885  76.6510175
   9.0836615  51.7772736  76.5017814  27.8932690  53.5523193  19.1316613
  28.7385527  53.2284713  19.4428684  27.2576110  52.9161924  19.4595536
  78.4601620  40.4706895   4.3147249  78.9026634  41.3194031   4.3042508
  77.6407422  40.6335560   4.7819052  34.9752262   7.3930298   6.9652410
  35.4746466   7.6495393   7.7404918  35.6305211   7.3208290   6.2712615
   2.2714248  58.4152415  28.2111257   1.4722670  58.2935465  27.6985158
   2.4042096  57.5753958  28.6507383  39.8131527  13.9920009  10.6788116
  38.9989506  14.3634771  11.0183882  40.4465542  14.1171507  11.3854741
  18.2860584   0.1719071  22.9898112  18.9337579   0.5327038  22.3843833
  17.6928624   0.9015336  23.1686842  69.6769007  60.4126433   2.2870753
  70.1903037  60.4907120   3.0911615  69.4034796  61.3084448   2.0895598
  52.4319171  60.1330867  25.0291922  53.2142705  59.8055857  25.4729241
  51.7328355  59.5420873  25.3089001  16.3524708  18.3110511  83.4004256
  16.3702094  18.4404310  84.3486755  17.0192326  18.9100366  83.0644542
  46.2643400  71.0927100   1.3628376  46.9220658  71.4640149   0.7748228
  46.7651390  70.7837606   2.1178095   3.3492874  65.6868063  77.4542653
   2.4857603  65.6809977  77.8672048   3.5396297  64.7642786  77.2841350
  17.5840704  36.4729948  28.2612073  18.0003669  37.2920375  28.5297180
  16.9089767  36.7406424  27.6376328  23.5980511  35.0828649  88.4289156
  23.1810381  35.7577833  87.8933626  23.5504038  35.4227738  89.3224611
  78.4699738   5.3362246  37.9552003  78.5519503   4.4203237  37.6894236
  77.6140897   5.6064640  37.6225369  25.4994640  21.7201064   5.9760704
  25.9542015  22.4947597   5.6453771  24.5717696  21.9530607   5.9393657
  84.7940177  41.3103441  63.0744466  84.3417104  41.9183747  62.4896828
  84.3654482  40.4680908  62.9222313  46.8895200   0.2628396  46.0212650
  46.7955913  -0.0101341  45.1086344  47.8350441   0.3260218  46.1562613
  14.9798300  16.9310799  10.2979269  15.7611619  17.4356992  10.5240061
  14.6443688  16.6195545  11.1385514  72.2457583  57.3024797  64.4692937
  71.5911426  56.7718278  64.0152907  73.0761672  56.8596344  64.2945342
  56.7117477  45.0772556  10.9330898  56.1798980  44.5841976  10.3083806
  57.4559060  44.5044986  11.1185884  85.6543116  31.7071013  25.1819269
  86.5395164  32.0098220  25.3844226  85.0809731  32.3079712  25.6578156
   2.7864777  31.2397880  43.7859156   3.1775150  30.7813685  43.0421594
   2.6395060  30.5553572  44.4387446  78.5210116  30.3863139  67.1424990
  78.4484573  30.9528932  66.3744133  77.9018103  30.7557995  67.7720242
   0.2229669   4.6740667  73.1815705   0.2863406   5.0858379  74.0433478
   0.8778484   3.9762189  73.2008223   5.1751522  41.6717160   3.9693105
   5.2517445  41.9343183   3.0520289   4.2324643  41.6473714   4.1335622
  36.2218022  46.3325075  41.3498048  35.5845071  46.7876990  41.9001569
  36.2213581  46.8224460  40.5274959   8.0119022  58.9515139  43.1730499
   8.6688459  58.6719976  42.5354548   8.3974220  59.7206209  43.5926697
  66.9372811  61.8781104   7.4980695  67.5347225  62.6043332   7.6766642
  66.7267155  61.5232456   8.3617621  44.2861710  61.1052496  42.6196293
  45.1292426  61.5545258  42.6797376  44.4205300  60.4320863  41.9525231
  54.2073355  43.4973931  57.7682953  53.7470513  44.3181881  57.5931786
  53.5099415  42.8566770  57.9074223  79.6764781  64.5513641  65.8533113
  78.7857686  64.5015429  65.5063440  79.9262081  63.6396662  66.0038892
  13.4611708  55.8843090  28.6616087  13.3371319  55.3669472  27.8658807
  14.3002980  56.3261343  28.5316556  78.2708027  63.2554811  44.5674391
  78.2509948  64.2124681  44.5713454  78.2888739  63.0200765  43.6398132
  66.2634074  26.2379566  78.5318058  65.4226280  26.0781374  78.1031105
  66.9128589  26.1109494  77.8402035  69.4941182  53.1663690  15.9799514
  70.2345870  52.5830511  16.1463184  68.7237943  52.6033572  16.0564406
  77.9666977  13.1956915  76.9873201  77.8826016  13.6504384  76.1492479
  78.8756506  12.8962905  77.0072105  42.2976156  38.1994801  36.3855234
  42.4592956  37.8965030  37.2789977  41.4886342  38.7073531  36.4475390
  66.6201369   3.3842691  60.3640375  67.3548652   2.8191166  60.6028026
  66.2979548   3.7238236  61.1989826  37.8856545  63.9450756  44.4999177
  37.7941155  63.3466865  43.7584441  37.5324119  64.7760169  44.1821315
  86.4109265  23.9438617  66.5596834  87.1911710  24.4414636  66.3150558
  86.0374213  24.4301380  67.2947080  50.0150889  45.1276047  19.8361142
  50.9638169  45.0246069  19.7616929  49.7539214  44.4769592  20.4877919
  25.0654654  50.5409969   3.3028095  25.4736022  51.3437928   2.9785027
  24.3782418  50.3472625   2.6652967  41.4201762  30.9364887   1.5257606
  41.9257266  31.2007804   0.7571251  41.9179667  31.2776652   2.2687512
   4.3058873  48.2439588  25.0907569   3.4411525  48.3770726  24.7024965
   4.3502389  48.8833748  25.8016803  34.0642825  38.2268141  57.4275430
  33.2309054  37.8408454  57.1578345  34.4149252  37.6128317  58.0727618
  43.1550068  51.5907282  53.7568261  43.5295135  51.2859508  54.5833170
  42.9892682  50.7899875  53.2592550  47.7223461  24.9287315  10.7465424
  47.3540946  25.7765016  10.9953568  48.3752770  25.1379559  10.0786065
  57.1099023  20.5640914  58.3177305  56.9476960  19.6993047  58.6946457
  58.0219584  20.5322770  58.0289863  42.3303270  32.9419268   3.4029753
  42.9913502  32.5369713   3.9644833  42.7584809  33.0255657   2.5509655
   1.3032601  47.4371791  68.8413412   0.6051741  47.7495066  69.4169794
   2.0274128  48.0448567  68.9915497  12.2495784  60.0981059  66.4612312
  12.7550136  59.5386057  67.0509146  12.8026593  60.1898104  65.6853938
  59.4169832  39.7716721  47.0966013  59.1627631  39.1966645  46.3748186
  60.2848292  39.4617382  47.3554758  84.7384179  37.3528929  16.1294575
  85.1572120  36.9645129  16.8975749  85.2035353  38.1785986  15.9948928
  78.4283717  68.4530277  66.8156562  78.4581032  69.4057536  66.9031845
  79.2399521  68.1496837  67.2225362  54.5406031  13.1531761  28.4163531
  55.4831331  12.9862361  28.4166267  54.3928614  13.6910751  27.6384913
   3.6839369   9.7498734  79.5690841   3.6645829   9.2683047  78.7420721
   3.5819879   9.0759287  80.2411233  21.8387598  25.9610218  31.7955877
  20.9871033  25.7670162  32.1870911  21.7476089  26.8498268  31.4521507
  76.7236324  37.7625226  75.1255990  75.8905335  37.6607525  75.5858390
  76.7502727  37.0273968  74.5131349  84.8896728  10.0880285  79.5891334
  84.5763369  10.9601884  79.3495719  84.2321855   9.7570147  80.2009931
  74.9359946  59.9364296  22.5339195  74.2394280  60.4349755  22.1067440
  75.7308240  60.1809496  22.0599069  73.9270115  57.2202717  28.0904739
  74.6790912  57.4858890  28.6196765  73.2237753  57.8109969  28.3601667
  57.8608327  64.5400010  25.2558782  57.4623970  64.9865983  26.0028933
  58.7366652  64.3008304  25.5591053  29.7464778   0.3098221  22.6683180
  29.6065114  -0.6349542  22.7318717  29.1286846   0.5988310  21.9967248
  48.4661704   6.1353680  83.9124140  48.7887625   5.6846322  84.6928007
  49.1504026   6.7711381  83.7029995  40.6441394  68.7134458  25.6807243
  40.6860397  69.5283758  26.1810895  39.7091678  68.5176388  25.6197367
  84.7375661   9.9255400  45.3411336  84.8433175  10.8625353  45.5057186
  84.5983997   9.8625493  44.3962015  29.7665053  43.0154574  37.8980369
  29.5148661  43.7237872  37.3054338  30.7231756  43.0437980  37.9125482
  16.1506147  13.6189568  61.8892631  16.5752182  14.4363433  61.6288343
  15.3187013  13.6197810  61.4158167  75.3726576  64.6629276  23.7158489
  74.7244349  64.4526577  24.3880289  76.0395480  63.9820784  23.8049185
  68.1512139  65.0011174  50.2244197  67.9426344  64.0680362  50.2700917
  68.2046828  65.1890013  49.2873645   3.7327388   9.6621473  17.0979161
   3.0890779   9.1335415  17.5696241   4.4017559   9.8647482  17.7518281
   6.4463181  47.3680763  41.0276263   5.9007265  48.0347203  40.6103166
   6.1513373  47.3527073  41.9381108  18.2163525  54.6536321  36.3887974
  17.5864530  55.3734365  36.4254029  19.0540991  55.0776957  36.2028332
  37.8994917  38.4357241  40.9033370  37.7328563  38.5072800  39.9634730
  38.6813338  38.9683396  41.0491984  82.9631817  28.7501878  77.3233662
  82.9124095  29.3705859  78.0505252  83.1998472  27.9186092  77.7340951
  77.7555085  46.8590636  81.5993377  78.1108693  45.9718404  81.5465591
  77.4550747  47.0499904  80.7107893  35.5876877   2.4046707  77.5457144
  36.2500085   3.0586814  77.7689473  36.0898056   1.6534189  77.2299136
  53.6245653  22.0771317  21.0801710  54.3644798  21.5240766  20.8293954
  53.4522091  22.6123324  20.3055192  16.3963209  63.4541545   4.5930111
  15.9909898  62.6097591   4.7903307  16.0563396  63.6869692   3.7290425
  52.9508709   8.4052866  49.0478475  53.5645974   8.1999160  49.7531096
  52.8550062   9.3570125  49.0833388  42.8986369   8.2323763   3.9236224
  43.6641691   8.3784238   3.3678685  42.7314079   9.0830564   4.3293437
   8.8277630   6.9288214  20.3620779   8.5240755   7.5092645  19.6641584
   8.0434760   6.7453450  20.8792452  60.1934701  35.3852776  33.3501710
  59.4347433  34.8916142  33.6613972  59.9834109  35.5994785  32.4412018
  56.5486795  29.2375019  47.4946388  55.7597684  28.6954782  47.4868079
  57.1426432  28.7872868  48.0952595   5.6302647   5.5105748  75.2773347
   5.9330830   5.2107525  76.1344459   6.1677422   6.2799337  75.0890887
  63.5169081  63.3553577  12.3616998  63.9693726  62.8325013  13.0236128
  62.5920722  63.1355272  12.4738823  59.8531780   0.3216853  68.3043551
  60.3148249  -0.1661578  68.9863545  59.2697906   0.9098890  68.7838417
  16.4496922  49.4525085   2.5543503  16.8897653  49.6728847   1.7333742
  16.2052372  50.2984556   2.9296464  26.3817140  26.3762118  78.5009163
  26.7487983  26.8535494  79.2449794  25.9446678  25.6203925  78.8932931
  36.5952529  10.1441378   5.5641471  37.3170320  10.3325156   4.9643299
  36.8444828  10.5751936   6.3816476  57.6099899  17.2426781  41.2431698
  57.1687467  18.0635803  41.4614719  58.3793080  17.5105733  40.7405630
  50.4238796  17.7237692  25.5590182  50.3174701  17.1991144  24.7655157
  51.0263637  17.2162124  26.1027376  85.8517638  59.8180363  36.7090597
  86.6884892  60.0343008  37.1205839  86.0752007  59.6267884  35.7981634
  38.7694136  46.9938274  39.7441857  38.0491700  47.4689059  39.3297203
  39.1126045  47.6023766  40.3984942  60.2327033  43.5153279  72.5475025
  61.0888141  43.1689692  72.7991802  59.7145293  42.7398893  72.3320437
  86.2309281  18.2232473  50.9642423  85.3286512  18.5251840  51.0689438
  86.2815812  17.9308885  50.0541915   2.5256422  45.0059364  69.7724292
   1.9488857  45.6207321  69.3189868   3.3893469  45.4170022  69.7367794
  35.9771686  39.5080438  59.2487205  35.8486931  39.0467679  60.0775452
  35.4827971  38.9946633  58.6097611   8.9712125  32.1061463  31.2925535
   9.4609164  32.6702933  30.6940887   8.0974336  32.0482217  30.9060473
  71.0739847  51.1288382  29.0636670  70.6343275  50.6533826  28.3587732
  71.7275743  51.6676224  28.6178372  76.4886876  32.1788499  51.5466224
  76.4856416  31.2918875  51.9065116  77.3919180  32.4773580  51.6529220
  74.7844018   6.8148705  62.3376637  74.4217415   7.7005951  62.3518544
  75.6667119   6.9229818  61.9825965  85.0160110  55.2077537  27.8875990
  84.6449696  54.6574409  27.1978773  85.6331052  54.6359851  28.3442249
  60.9153554  10.6576590  75.8571006  60.0775695  10.9712989  75.5165473
  61.5291122  10.7796586  75.1327729  65.2163358  50.0400961  73.8649971
  64.4924521  49.7434136  73.3134505  64.9338545  50.8942182  74.1919707
  76.4269124  44.0155965  67.7551759  77.0577274  44.7351554  67.7783983
  76.9643449  43.2245347  67.7954165  85.6427304  46.8078355   2.2336789
  86.0585810  47.5738809   2.6292475  84.7101118  46.9197006   2.4179087
   3.3638211  18.3517767  63.5969351   3.6165375  19.1495813  63.1323127
   3.1536164  17.7268700  62.9030061  32.3118460   5.6903486  72.9624085
  32.6121571   5.7921552  72.0592582  32.3706205   6.5701085  73.3349673
  63.6652894  44.8385185  71.2241812  63.5130295  44.0095381  71.6778774
  64.3706626  45.2560535  71.7184939  65.8655784  57.3572754  20.1148091
  65.5684156  56.7175890  20.7619005  66.7876407  57.5020760  20.3270959
  53.8628954  48.6194771  45.2840457  53.2753866  47.9578224  44.9189728
  53.4501697  49.4543763  45.0630644  37.4207115  56.8877402  25.0997098
  37.8289034  57.6909594  25.4228972  38.1116194  56.4519697  24.6007286
  72.4502487  26.6998440  70.0760706  73.1163437  27.3719542  70.2203517
  72.6148938  26.0490825  70.7584440  29.2333327  36.3184409  64.5477963
  28.8040507  35.8210924  65.2439237  30.0153625  35.8085546  64.3364263
  68.6312735  17.5985478  56.0084486  68.5590850  16.6830099  55.7386134
  69.5728060  17.7508795  56.0893402  65.4959217  29.2302744  10.0339220
  65.3313326  28.8184611  10.8821862  64.6252410  29.4434216   9.6981913
  69.3956907   4.6072624  72.9016983  69.7366942   3.8391875  72.4434305
  69.8846047   4.6320465  73.7242435  40.5889618  47.5160947  61.5606738
  39.9761408  47.0568847  62.1349633  41.1616323  46.8278212  61.2222066
  55.5235238  50.8411545  24.4688822  55.7282656  51.7476905  24.6980223
  55.3801012  50.4079649  25.3103147  68.7342715  14.4188193   4.6612579
  69.2274723  15.0873760   4.1858457  69.1923877  13.6007952   4.4683903
  43.3184513  12.6510233  22.9909136  42.7571865  13.2297095  23.5069911
  43.1231030  12.8765016  22.0813915  17.4272441  44.2684896  63.8292855
  17.1114138  43.3651419  63.8504028  18.2754053  44.2154464  63.3887849
  28.5257455  64.6902923   6.5264856  28.9097553  63.8250752   6.3844727
  27.5918580  64.5205045   6.6500090  86.1609240  62.0378437  85.2593578
  86.2416160  62.8420584  85.7721533  86.5638427  61.3635509  85.8063657
  26.8976409  61.6174231  50.1817875  27.0023308  61.7420788  49.2385310
  27.6685721  61.1142424  50.4439061  59.5783493  13.7222543  64.3675501
  59.9192072  13.3953726  63.5349662  58.7532243  14.1493807  64.1374118
  51.2156588  59.6060688  43.2225748  50.5973301  60.1615853  43.6972356
  51.8414360  59.3209707  43.8884229  65.3223884  55.0046521  50.4502266
  64.5085117  55.1028743  49.9560719  66.0057890  54.9667773  49.7810772
  60.8535075  51.4580768  85.6581961  61.4761495  52.1850899  85.6589918
  60.7884384  51.1994647  84.7388932   6.5460589  14.4623649   4.8942988
   6.6303462  14.4600879   3.9408197   7.4476169  14.4936843   5.2143678
  73.3043794   0.4064743  15.4394276  72.9439742   0.2188792  14.5727396
  73.9997917   1.0438066  15.2768200  30.4014266  64.2340851  51.0418846
  29.6691811  63.8620745  51.5334702  30.2185219  65.1732268  51.0137691
  58.6132109   9.4508433  71.9237569  58.1694898   8.7281097  72.3676031
  58.2398109  10.2392525  72.3177305  61.0374945  52.5331134  26.6512666
  61.3736679  53.1486553  25.9998624  60.9623382  53.0503380  27.4531781
  83.0506149  29.0502031  51.1173729  83.4950896  28.5777273  51.8212484
  83.4815424  28.7491239  50.3174450   6.7567414  67.7681856  16.8352196
   7.2548690  67.0616434  17.2461927   6.9420025  67.6794787  15.9003179
  59.5644216  43.6334864  56.4927668  59.4291070  42.7039500  56.3086908
  58.7868308  44.0637443  56.1371510  55.7399088  69.7648595  23.3189973
  55.4481403  69.0341656  23.8641480  54.9574078  70.3035170  23.2016424
  34.7935044  50.5022000   1.4228106  35.4351969  49.8064501   1.5656201
  34.3414733  50.2495655   0.6177792  61.5128357  64.6756865  33.3964953
  60.5989988  64.7862589  33.6589981  61.7423044  63.7949545  33.6929527
  61.2774606  38.4851117  18.7570695  60.9639187  38.4463377  17.8535099
  61.5287281  37.5845584  18.9622532   2.3173431  42.1604515   9.2619606
   2.4078878  41.6824823  10.0863265   1.9870788  41.5095276   8.6427229
  45.6850175  58.9274088  11.9717072  45.7796599  59.7831641  11.5534281
  45.3716707  58.3527678  11.2732566  33.7475382  62.4098482  28.4632113
  34.2026740  62.3972608  27.6212346  32.8284262  62.2613999  28.2408875
  71.9977072  49.5493469  44.1257326  72.9116387  49.7921992  44.2740019
  71.9200450  48.6706717  44.4973914  33.1085199  23.6735901   6.2031346
  32.9034443  22.7811831   6.4820353  32.4468246  24.2164836   6.6316878
  55.4633435  49.4531026  73.0754003  55.7826169  49.7413191  72.2202819
  54.5842535  49.1164944  72.9018273  32.1651952  41.7078240  53.4888006
  32.8857540  41.2755340  53.0303769  31.4882402  41.0347985  53.5595146
  86.4971416  67.0108252   3.6680148  85.7754267  67.6374362   3.6158787
  86.0885825  66.1994884   3.9697496  70.5284169  18.7046990  29.9389661
  70.9245460  19.4886256  29.5584762  70.3054707  18.1589028  29.1848882
  31.1392738  68.3722685  44.6104923  30.7904212  69.2621545  44.6618419
  31.5116631  68.3113843  43.7308042  77.4484105  47.3013299  65.8963281
  78.1876396  46.7588385  65.6216005  76.7195484  47.0075047  65.3498315
  48.3647718  56.0329167   4.4876858  48.0570886  55.7434707   5.3466293
  49.1174642  55.4717201   4.3012872   8.7707244  10.3444365  87.0033906
   8.0701783  10.9322173  87.2861990   8.3196740   9.5397955  86.7477769
  46.3624544  39.9903718  75.9765184  46.9017706  40.5749325  75.4439223
  45.4859258  40.3732100  75.9395801  85.6148105  59.5967896  78.9409336
  86.4540137  59.6970213  78.4915747  85.8449027  59.2531749  79.8041939
  52.6254216  36.1045628  12.8971570  52.7568990  35.5622601  13.6748801
  53.0371988  36.9405703  13.1157041   5.4017915  13.4567913  81.5143655
   4.8629655  12.8056371  81.9636945   4.8620223  13.7485677  80.7796904
  31.0891838  67.4128487   6.7149387  30.9941403  66.6764598   7.3190331
  31.9693177  67.3129663   6.3521445  45.4250208  50.6140503  20.5223368
  45.4712889  51.2474611  19.8061791  45.3515835  49.7649053  20.0866860
   5.5076276  27.9699767  55.6714739   5.6022200  27.3300984  54.9658961
   4.7816392  27.6383203  56.1998456  57.2539512  11.2195694  57.4591831
  57.7881098  11.8406503  57.9543244  56.4226274  11.6740591  57.3229052
   7.8618967  44.2272809   2.2839518   8.0665702  44.1035159   1.3571169
   8.4728196  43.6509847   2.7431768   0.4391666  65.0626487  35.9785484
   0.1535430  64.2159270  35.6354547   0.3819975  64.9674550  36.9292859
  17.0597106  34.5884317  21.6115032  16.9706616  33.9797675  22.3448721
  17.9774737  34.5152683  21.3496067  44.1602851  61.4387943  84.7922367
  43.2871822  61.3244837  85.1675451  44.0329728  62.0585679  84.0739721
  61.9322173  59.3261302  88.4918503  61.6680572  58.4108255  88.3987458
  62.5249470  59.4803666  87.7562455  70.0282260  15.2533234  17.2871987
  70.6482303  15.6567758  16.6797017  70.0439726  15.8210525  18.0576969
  14.2622923  67.2863898  59.0591293  13.5956054  66.6060271  58.9649647
  15.0910400  66.8080042  59.0827170  29.9993356  35.6494780  80.9124002
  30.0784059  34.9290100  81.5376246  29.0669387  35.8659666  80.9130998
  63.5102059  42.7473880  72.8140763  63.3562422  43.0368805  73.7133655
  64.2235963  42.1131847  72.8854358  64.6608523  46.6791494  19.5985830
  64.8108620  47.5089858  20.0514632  63.8878187  46.3096962  20.0253794
  16.2910530  18.7228453  74.7256406  15.4083172  18.4275915  74.5024040
  16.2794919  19.6643063  74.5531604  10.1910458  24.2300748  75.5224044
   9.6499497  23.7207556  74.9190464  10.4880501  23.5939128  76.1730335
  66.0315807  35.1377055  82.8383303  65.5766638  35.8590035  82.4035756
  65.5250837  34.3597450  82.6049422  67.5931785  17.1479225   9.9707253
  68.1015813  17.8992472   9.6653246  67.2998600  17.3974678  10.8470376
  20.6648916  21.1004132  71.7619902  20.3188794  21.1953695  70.8745834
  21.6064076  20.9782045  71.6401522  47.3522257  32.5824926  79.2928590
  47.2955879  32.4476629  80.2388214  46.4432554  32.5638936  78.9934280
   9.8237343  60.6399917  46.0012167  10.4386359  60.3637123  45.3216598
   9.7090949  59.8643040  46.5502143  10.3042961   7.8979338  65.6504022
   9.4559245   7.7682471  65.2265168  10.5813581   7.0180636  65.9059348
  54.8949152  38.8078040  34.5395021  54.2778564  39.0518361  35.2293705
  55.7081660  39.2532714  34.7770178  66.3562091  51.5867030  44.1196881
  66.4924806  51.7424912  45.0542425  66.9207785  50.8409459  43.9163664
  36.7887257  16.2712459  89.2188409  37.2264800  15.9378502  88.4356102
  36.7484753  17.2183169  89.0859190   4.0710261  52.3776264  21.9046730
   3.5821191  51.5673662  22.0484796   4.8503816  52.2876448  22.4530708
  81.3510155   1.0313540  22.0271651  81.0095821   1.1251487  22.9164668
  80.9467783   1.7483440  21.5385451  51.3821155  12.2036317  40.6716635
  51.9727025  11.4774610  40.4713758  51.8644995  12.7375574  41.3029010
  27.4237161  58.9781950  32.1143572  28.0088954  58.4245463  32.6313390
  27.8947116  59.1239907  31.2939069  43.0468075   1.8753903  16.8781636
  43.6547425   1.5643952  17.5489309  43.3542592   1.4675311  16.0686228
  86.5119002  14.9003694  57.3901457  86.7145204  15.8345137  57.3396353
  85.5568122  14.8649630  57.4429213  44.7451366  38.9905222  43.7468259
  45.6271182  39.1419999  43.4071279  44.8261607  38.1991749  44.2792133
  40.7116548  59.6828373  39.4784392  40.6908129  60.6114868  39.7095399
  40.6233647  59.6711529  38.5253913  54.6658047  58.5422043   5.8676488
  54.2480223  58.8964097   6.6526509  54.0806647  58.7907200   5.1520490
  33.3716420  50.6994965  66.1766264  33.9152634  49.9989558  66.5371127
  33.6084897  51.4734838  66.6875850  36.9664424  47.8846940   5.4720703
  36.4592057  47.2601104   4.9535744  37.6169964  47.3477933   5.9245622
  69.8527740   7.0550959   5.6537288  70.1616324   7.3161557   4.7861540
  70.4123431   7.5374853   6.2623458  69.6561831  11.4919073  62.3876475
  68.8841156  11.0358786  62.7225825  69.3086510  12.1126874  61.7472684
   2.4776319  40.2095922  36.4211207   2.6273644  39.3782196  35.9709744
   3.3236038  40.6561405  36.3870920  44.5299587  12.9858189  45.2990980
  44.1018159  13.5283063  44.6368043  45.1691337  13.5684308  45.7092816
  28.5221855  60.5541336  62.5578481  28.6676626  60.6318577  61.6149657
  28.4850086  61.4583124  62.8697944  70.9242256  67.0806708  46.3911547
  71.8044055  66.7887504  46.1538837  70.9983012  67.3437563  47.3085045
  51.8183670  28.6059134  69.0632351  51.2514328  27.9469246  69.4639238
  51.4782650  29.4412815  69.3837388  56.8158509  55.4292794  71.8707128
  57.1891181  54.8937308  72.5707779  56.0335293  54.9516212  71.5949459
  50.7144907  44.9022995  39.1417699  51.3718022  45.1747786  38.5015132
  49.9495685  44.6695626  38.6155006  72.5177128   6.8616066  24.6510267
  71.8895528   6.1690195  24.4461607  72.1739988   7.2692237  25.4459738
  72.2570437  52.5113077  12.4132948  71.6479834  53.0967564  12.8633250
  73.1237150  52.8075064  12.6914657  40.6851128  56.1012352  50.5324861
  40.6130177  55.1899950  50.8165202  40.0295810  56.1890074  49.8405281
  42.2672542  58.8202245  80.7886268  42.7570503  58.6906158  79.9765103
  41.3627519  58.9518509  80.5044052  31.5117144  48.3246577  33.3186780
  31.3118930  47.6751937  32.6445120  32.4652623  48.4056232  33.2981150
  82.6016472  70.7382589  87.3017209  82.2210951  71.5655232  87.5967560
  83.2522033  70.9936523  86.6476698  43.5022939  10.8220958  73.5348517
  42.8160281  10.3795817  74.0343037  43.9321155  11.3926877  74.1719624
  77.2253378  32.2780494  24.8395565  77.6538125  31.4445779  25.0344068
  76.2952352  32.1104629  24.9913977  75.5587483  40.8876277   5.1488332
  75.8595901  41.1530450   6.0179015  74.8447498  41.4925134   4.9474599
   3.7187435  59.3439861  84.2805060   4.6537481  59.1405657  84.3053732
   3.4367865  59.0683969  83.4082774  58.5966627  26.4434216  58.5331793
  57.7693618  26.0509254  58.8120193  58.3570357  27.0136238  57.8026451
  14.2078719  21.1809734   6.4020144  15.0472867  21.0337925   6.8378498
  13.9552570  20.3189297   6.0714116  61.2791255   2.5597843  80.2160681
  61.0549236   2.8533144  79.3330021  61.6121288   3.3442544  80.6518975
  33.7303146  34.6704232   3.1383201  33.3724998  35.1145705   3.9070421
  34.4418328  35.2385538   2.8430215  19.3191115  57.5128968  32.5331411
  18.3831996  57.3197525  32.5878776  19.5707866  57.2311137  31.6536584
  52.8044324  53.9240042  51.6643346  52.6461834  53.6840990  50.7512987
  52.0399993  54.4445378  51.9111515   2.4791330  68.0940005   8.8214551
   3.2293396  67.7548134   8.3332195   2.5081962  67.6298907   9.6581087
  16.8831709  16.0914803  73.2763074  16.6083491  16.6054488  72.5170043
  16.6200433  16.6189180  74.0304992  62.7127436  39.3398792  41.0483364
  62.8122060  38.4339909  40.7555815  63.2006428  39.8543409  40.4052848
   6.8378245  25.2330903  88.9788348   7.4992802  25.8085939  89.3628970
   7.1856195  25.0114396  88.1150400  11.6629705  56.0050518   7.7072104
  10.7840683  56.1873282   7.3747375  11.5298704  55.7889484   8.6301489
  10.0571145  21.7110079  30.6272075  10.3794868  21.8754418  31.5133618
  10.6352188  21.0293173  30.2846799  66.1139330  17.9493798  63.2639924
  66.1568392  18.3307210  62.3870832  66.0036274  18.7006803  63.8467548
  17.1136372  52.7995307  87.3612434  17.2162075  53.7290832  87.5653103
  17.4819092  52.7051092  86.4827833  14.1294491   1.2424699  24.1205493
  13.6318789   0.4454950  24.3035429  13.6770007   1.9260748  24.6147221
  46.0805017  12.7799325   1.3869990  46.1320702  12.0613070   2.0171973
  45.1587983  13.0381148   1.3930393  53.8213579  57.9746448  80.4088113
  52.8749140  57.9560155  80.2669351  53.9323619  57.7029589  81.3199077
   0.8820976   7.8961602  16.8055401   0.9461434   8.8440879  16.9220000
   0.2552883   7.6147762  17.4719972  17.4342214  70.7291969  38.6425256
  18.2515281  70.2469593  38.7677792  17.6035611  71.5906603  39.0238873
  36.4039897  36.6671805  21.3966898  35.9525555  36.2831097  20.6450724
  35.8019274  37.3368866  21.7211069  40.8479477  48.8641097  86.3957472
  41.3810685  49.5303294  86.8295277  39.9518356  49.1940242  86.4618632
  29.2178063   0.9273137  71.1150650  29.5454968   1.5321070  71.7807044
  29.1163923   1.4664797  70.3306881  41.6838153  65.1046554  72.4008876
  41.1896246  64.7174435  73.1234347  42.6003304  64.9385448  72.6214306
  29.5977140  66.5358833  43.0450017  29.4964104  66.8783532  42.1569230
  30.3617878  66.9954212  43.3932086  72.5247485  54.8497083  31.4789950
  72.9001661  54.1063960  31.9509911  71.5844847  54.7907478  31.6482862
  83.3940874  59.1833389  75.5213474  84.0560163  58.5127475  75.6898380
  82.6556301  58.9361501  76.0779536  45.2864097   8.9723373   2.4834879
  46.0960843   9.2784324   2.8921008  45.5780126   8.4411877   1.7424888
  73.7902071  49.3889539  33.4819250  74.4610808  49.8660234  33.9703562
  73.7003555  49.8743614  32.6618408  80.4165841   9.6269338  64.0969538
  80.0002633   9.4852335  63.2467598  80.1689245   8.8614051  64.6154732
  25.8910739  12.7187466  81.6824588  26.1517855  13.5518289  82.0751866
  26.4748059  12.6151425  80.9309570  54.6420985  29.8120290  84.9129118
  54.8578859  29.4634409  85.7778707  53.9425315  30.4443586  85.0772198
  34.4972490  55.8708135  75.3817136  33.9084628  56.5563724  75.6972634
  33.9468516  55.0897272  75.3251573  40.5861441  36.6315097  75.4277928
  41.1959806  37.2726939  75.0628077  40.6010598  35.9050612  74.8046699
  18.0384101  64.0586181  72.1915247  18.0481138  64.4653812  71.3251059
  17.1338689  63.7687558  72.3099177  46.7393431   7.0301954  86.5263320
  46.6380300   6.0857050  86.6442535  46.2859812   7.2189806  85.7047147
  25.2241987   4.9898639   9.4411118  25.2055196   5.6464196  10.1374002
  26.1193406   4.6511134   9.4552847  12.5733559   1.7157360  58.9759918
  12.5125128   1.8548201  59.9210767  12.1725240   0.8582117  58.8338029
   8.5622330   7.6001742  33.2373565   9.0178191   6.8434287  32.8685620
   8.7486916   7.5582914  34.1752856  50.4362888  31.0150026  59.3897500
  50.8290395  31.5821813  58.7262088  49.4949131  31.1685262  59.3092878
  68.7364585   0.6830988  20.1838217  67.9372022   0.6967046  20.7103538
  68.5802363   0.0027806  19.5288457  77.3170365  32.1814845  69.2381597
  77.4089784  32.0030441  70.1740751  77.4974064  33.1177613  69.1539912
  78.6400324  60.0757613   2.0986300  79.0424842  59.5125646   2.7597455
  79.3693300  60.3531043   1.5441593  26.4384259  56.0463174  60.9718874
  26.6343474  56.7961995  61.5336022  25.9357650  56.4157483  60.2458815
  75.8892993   4.7954765  31.2250025  76.3709561   4.0870565  30.7979432
  76.2841315   5.5959750  30.8792547  11.3287387  59.1129560  63.0340754
  11.8625870  58.5852570  63.6280212  11.5404015  58.7799637  62.1619820
  83.7769943   3.5320987  46.7695727  84.4977405   3.5515260  46.1399860
  83.7892142   4.3993601  47.1744678  11.8554369  47.1802491  34.3136702
  12.7814888  47.3890456  34.1909360  11.7999095  46.8571413  35.2129754
  56.6195478  26.0895973  51.7691261  55.9733340  26.4631339  52.3683839
  56.2145130  25.2818822  51.4532544  24.0660905  58.2641669  73.0010883
  24.7752857  58.6432972  73.5202552  24.1067943  58.7283145  72.1649411
  19.6696705  44.6678439  30.9360211  19.5350676  44.9153352  30.0212195
  20.4806267  44.1593732  30.9297482  28.0133906  59.6919879  18.1662671
  27.1773352  59.8686931  18.5975657  28.4714817  60.5323672  18.1783920
  77.8000292  58.8851673  49.4387435  77.9603024  59.1168849  50.3535393
  77.1129868  58.2197818  49.4770421  79.7025309  64.9033646  61.6311055
  78.8051242  65.1747426  61.8241005  80.2461874  65.4595381  62.1890844
  26.4389551  56.6302937   3.3085714  25.5068896  56.5001398   3.1337983
  26.4751285  57.4318772   3.8304787  52.8446501  28.8960267  87.6534773
  53.6766300  29.1870148  88.0267965  53.0939342  28.2854586  86.9597224
  33.6016513  62.0757139  80.3795632  34.2253701  62.7949413  80.4791554
  33.9760212  61.5278226  79.6897124  48.1222697   3.0848311  64.2834347
  47.8027189   3.3208498  63.4125648  48.9399183   2.6149874  64.1193327
  86.9226495  68.9223654  16.0222001  87.0664766  69.6948234  16.5688758
  85.9838398  68.7498311  16.0936158  58.9425378  31.9366556  32.0792088
  58.8234524  32.7533674  32.5640101  59.4782590  32.1818657  31.3248172
  24.8808886  52.2445940   9.8550751  24.5420208  52.4626889  10.7233119
  24.1489373  52.4155386   9.2624056  75.1818948  64.6513014  70.3408919
  75.3588666  63.9483280  69.7157990  74.2554675  64.8563702  70.2147527
  75.5156378  46.1929825  83.4531189  76.2402557  46.7021900  83.0899819
  74.7339265  46.5619841  83.0420262  13.4269606  23.2735278  77.0604181
  14.0815506  22.6368806  77.3475142  12.6642680  22.7442601  76.8271637
  23.1145851  40.2987767  24.7670450  22.2167829  40.5175212  25.0167125
  23.2133095  39.3782765  25.0102833  47.4126232  45.1402873  61.9234467
  46.7146374  44.8797987  61.3224530  48.1690391  45.2974283  61.3583154
   4.4098164  24.4126333  83.4631649   5.2262817  24.8609628  83.2426725
   4.6771220  23.5178968  83.6734651  85.3837287  44.4970064  31.3990555
  85.3043642  44.0966601  32.2648823  85.0658929  45.3919053  31.5189224
  48.4002124  27.8802788  47.1609797  49.1087187  27.3759494  47.5608581
  48.3546494  27.5573178  46.2610619  26.8343097  40.0634459  77.8101082
  26.5869914  40.2819494  76.9115973  27.5164594  40.6973398  78.0316531
  24.2744489  18.1419145  76.4207583  25.0528553  17.7934947  75.9861102
  24.1601860  19.0144610  76.0441438  25.6973406  57.3801247  53.0734654
  26.5937737  57.0509085  53.0082252  25.6571621  58.0933601  52.4363526
  73.1360987  16.3227578  40.6752113  72.9821210  16.4728563  39.7424771
  74.0879108  16.2582933  40.7535045  29.3148418  60.0188910   9.4055587
  29.3526671  59.3978832   8.6781315  28.4077310  59.9780714   9.7084044
  41.1842371  59.6434230   3.4244421  40.3041169  59.4630685   3.0941505
  41.7377410  58.9863077   3.0024649  19.9138198  22.1413561   9.8188134
  19.3090403  22.3537302   9.1079190  19.4535410  21.4797858  10.3352436
  65.5074993  28.8533090  77.7770318  65.6509129  28.0963291  77.2090127
  66.3560129  29.2953866  77.8057370  17.7658697  39.4932001   7.1065113
  18.0996981  39.0469756   6.3282607  16.9266519  39.8613207   6.8300470
   1.4639332  29.5677407  23.9474220   1.4039086  28.7294383  24.4055464
   2.2385925  29.4820734  23.3917278  29.5018934  36.0446991  25.2231224
  28.7863820  35.4196419  25.1065940  29.3865159  36.3776386  26.1131062
  83.7297834  64.6489989  72.9318366  83.6098685  65.3509299  72.2921920
  82.8523629  64.4892862  73.2794814  47.2147889  44.2929335  48.6289314
  46.8518641  43.6064713  48.0692108  47.4252119  43.8467988  49.4492470
  29.9104950  56.2631405  14.5822555  29.0323707  56.4514358  14.2510842
  30.1588037  55.4453795  14.1511620  62.7755712  57.2569883   1.5719741
  62.9951078  57.9367617   0.9348370  62.8442780  56.4378567   1.0815309
  19.1203315  55.8332320  10.0596984  18.2590533  56.0933763  10.3864346
  19.1709156  56.2182614   9.1848124  80.1864519  68.4320845  83.2272215
  81.0903352  68.7071692  83.3806985  79.6563274  69.0878551  83.6801729
  38.4845724  16.6908851  77.8784459  38.9804437  17.1760082  77.2189013
  37.6133846  17.0871298  77.8625122  28.0185158  31.6929199  14.4364160
  27.6407893  31.9597636  15.2744787  28.2672237  30.7777718  14.5663400
  58.5608060  29.4688312  73.3085383  59.4198920  29.3152067  73.7017336
  58.0048843  29.7307418  74.0424223  18.1402766  14.9648797   2.3804315
  18.5974623  15.1318004   3.2046587  18.1442386  15.8090032   1.9291315
  26.1590155  50.9908651  45.3161887  25.2053210  50.9406916  45.3808516
  26.3311028  51.8762854  44.9958003  83.4642217  44.2910784  26.0141147
  84.0115556  44.6002639  25.2922686  83.5129470  43.3366601  25.9598612
  23.1265203  47.8919841   8.8565887  22.8198457  48.4228656   8.1215055
  22.7822625  48.3350614   9.6320891  28.4548182  50.0856278  21.9298988
  29.3604205  50.3955084  21.9203923  28.5273922  49.1322905  21.8839330
  31.9524647  53.1685762  28.3402329  31.3654914  52.4126891  28.3583686
  31.9054161  53.4867811  27.4386988  44.8659344  66.2678705  83.2375314
  44.3764154  65.9205603  83.9831712  45.7014622  65.8014389  83.2613359
  11.1172653  65.7053325   1.3353502  11.3753509  66.6088732   1.1530377
  10.6371162  65.4310917   0.5540175  80.5889022  30.0076896  16.0967513
  81.5022602  29.8087100  16.3027029  80.0868031  29.3426608  16.5677769
  65.6476898  31.4678360  57.9258878  65.6616012  31.7651438  58.8356385
  65.9198282  30.5511635  57.9692924  81.3070413  66.3392229   0.6666756
  80.4997596  66.2923055   1.1788541  81.8859558  66.9001118   1.1829056
  43.7581991  17.8591530  86.8663966  43.2925121  18.6530290  86.6034738
  43.4003231  17.1736167  86.3023074   5.0483642   2.3878713  81.7522111
   4.3598691   2.4309227  81.0886202   4.6834428   2.8508411  82.5063485
  64.7394122  57.5156022  51.4989769  65.5239240  57.8894976  51.0977597
  64.8230190  56.5729330  51.3553924  56.1442140  70.7085761  87.9935767
  55.6327504  70.0624970  87.5065256  56.4718908  71.3088792  87.3238783
  60.5942604   8.3049629  52.1612153  60.0215796   8.8742451  52.6752059
  61.3714665   8.1903516  52.7080669  25.0412468  53.9125902  41.6234473
  24.6030098  54.3004303  40.8659778  25.7239682  53.3573569  41.2468316
  11.8185387   4.7263632  88.5235844  11.0927205   5.0953517  89.0268411
  12.3758276   5.4777394  88.3208660  47.8921542  34.1824519  63.0830985
  47.1472365  34.5625174  63.5488021  47.7683917  33.2367929  63.1646070
  17.1705859  40.9184299  81.9986279  16.9839620  40.3976922  82.7798037
  17.6094339  40.3098234  81.4042860  22.8338763   3.6347697   9.3944228
  23.4848059   4.3363702   9.4111351  23.1704804   2.9811082  10.0073308
   0.9640729  45.4994183   6.1877437   0.2750367  45.5024652   5.5233254
   1.7777413  45.4281017   5.6886550  52.1527500  16.6740324  13.2751081
  51.5638933  17.1673245  13.8461970  52.5268639  17.3329720  12.6902413
  -0.0894842  38.3858613  45.4823344   0.3973873  38.7353073  46.2287093
  -0.2030401  37.4570816  45.6840894  43.1129281  11.4355647  47.7925894
  43.2876547  11.9845078  47.0281524  43.9786426  11.1531612  48.0875785
  73.3374131   2.6914179  42.2499032  72.7637131   1.9292350  42.3284990
  72.7469091   3.4151036  42.0405808  33.7210207   3.9613897  42.0425378
  33.4712506   4.8512364  41.7935005  34.4230130   3.7305231  41.4341472
  43.7249823  52.1740653  61.6595576  44.1350272  52.0032354  62.5074444
  44.3156237  51.7720920  61.0225395  36.0032588   1.9006054  25.5600355
  36.2334238   2.6033787  24.9522810  35.2006910   1.5245699  25.1984914
  40.0139439  20.1974813   9.7709507  40.4187468  19.3587446   9.5498465
  40.7150793  20.8391529   9.6573788  78.5377021  15.1670618  13.6335083
  79.2990219  15.7324426  13.7637719  78.8236592  14.5265721  12.9821763
  30.8186849   3.9358925  67.4227417  30.9254073   3.3659740  66.6611414
  30.2492785   4.6415054  67.1159540  76.4998516  31.6434634   1.0549170
  76.9970230  32.4585783   0.9867982  77.1043475  30.9678279   0.7477797
  76.8046310  42.4756171  61.9861717  76.4246190  42.3677405  62.8580578
  76.2635123  43.1468703  61.5704296  70.0624148  62.8614296  40.9525673
  70.6670699  62.4200239  40.3560901  69.4372076  63.3020577  40.3770721
  85.7215736  46.6129693  43.5179255  86.0227582  47.5025805  43.3332322
  85.4509771  46.6374247  44.4357552  67.4138433  53.9247191  36.2857609
  66.6553966  53.7448316  36.8413065  68.1607266  53.8970235  36.8837827
  75.7738154  33.9755587  84.1209169  75.5507382  34.4343148  84.9308621
  76.7203613  33.8432131  84.1735210  13.9659299  50.8561849  26.6999578
  13.2116396  51.4445786  26.6672352  14.2273683  50.8529060  27.6207570
  39.5399133   8.9090661   3.7491457  39.5365210   7.9868886   4.0056785
  40.0975562   9.3364619   4.3992219  57.1718642   2.2720593  35.4000229
  56.7394226   1.9909849  36.2063871  57.6669127   1.5044994  35.1136479
  78.7397494  39.0298479   1.9711651  78.6794967  39.7500234   2.5988185
  78.4564763  38.2591126   2.4630545  57.7762905  22.3433817  62.6197155
  58.1845869  22.8233100  61.8991638  58.4788994  21.7972141  62.9722399
  12.9506021   4.3594047  74.1995179  13.8208727   4.6598554  74.4614154
  12.8000961   3.5738942  74.7254011  41.1603368  70.2365326  62.9204744
  40.9518093  71.1684999  62.8557823  42.0600789  70.2144753  63.2463724
  67.2996880  40.1786181  35.6055874  66.9579466  39.3529840  35.2624067
  67.1478571  40.8110517  34.9033004  79.0133972  59.7459636  67.6858955
  79.8856541  59.3701390  67.5669180  78.9011070  59.7948305  68.6352293
  56.0184071  67.2213015   0.7224464  56.2058094  67.7473029   1.4999004
  56.6978706  67.4697539   0.0956828  75.4607549  33.8435791  28.5956428
  75.7066564  33.6138875  29.4917489  76.2947667  33.9463567  28.1372839
  13.4428534  48.5505834  68.8710990  14.1673706  47.9307221  68.7869643
  12.7352866  48.0399939  69.2646464  48.4579368  20.6814446  67.5607246
  48.6988509  19.8134670  67.2369853  47.6641554  20.9062912  67.0753516
  79.0777721  41.2093885  88.9749608  78.8993361  40.8029413  88.1269083
  79.5656662  40.5447314  89.4611934   3.6806200  35.2439602  13.9749335
   3.6057714  35.4587594  13.0451535   4.0800762  34.3741989  13.9884183
  72.4641480  58.5897405   8.0729811  72.7797623  59.1972517   7.4039896
  73.2528794  58.1460471   8.3848637  44.8765100  13.9519229  70.2916057
  43.9501506  14.1579120  70.4167399  45.2606119  14.0361573  71.1643039
   4.3723066  48.6289412  51.0400815   5.1960148  48.5759703  51.5247781
   4.3797057  49.5030359  50.6500360  76.2753074  47.4955715  17.5305502
  76.8908282  47.7525840  18.2170708  76.8168454  47.0538764  16.8764294
  14.2094258  28.8814162  88.5150939  14.2159838  29.4680238  89.2714539
  15.1170072  28.5891490  88.4307869  45.1813720  21.8432319  67.2401468
  45.2984053  22.0682304  68.1631369  45.4611542  22.6259475  66.7654784
   4.1339879  23.8480850  34.2915609   4.0401962  23.3959523  33.4531034
   3.4375650  24.5047579  34.2887892  84.2728255   2.9359752  33.7335261
  84.4693285   2.1229567  33.2681022  85.1249219   3.3552192  33.8535179
   8.7740547  25.1598653  14.6172303   8.7050607  25.9018416  15.2180156
   9.7140193  25.0607419  14.4659925  26.5498636   7.1036183  35.3835985
  26.1384674   7.3492862  36.2122312  26.9637799   6.2593339  35.5627328
  58.0823605  41.3673292  49.5949187  57.9358846  41.0457493  48.7053328
  57.5936320  40.7615715  50.1520848  17.6091633  35.9807322   7.8169497
  17.2622532  35.4036756   8.4973106  17.6327570  35.4361504   7.0301169
  67.0696664  44.7012559  26.9717851  67.6973398  44.6956836  27.6944377
  67.5973511  44.8977390  26.1977210   7.9234679  28.5783044  10.3123000
   7.6516013  28.2662764  11.1754101   7.1657206  29.0613971   9.9826453
  47.3870423  60.7816442  33.1659980  47.6884814  59.8966702  32.9606025
  47.1782823  60.7528877  34.0997132  62.8873806  33.7399170  32.6752732
  62.8679305  33.5618604  31.7349810  62.0583705  34.1845840  32.8520365
  53.4759954   5.4513341  83.9902223  52.7102987   5.1505873  83.5008434
  53.1564427   5.5722490  84.8843686  78.8482103  24.9728543  77.5316724
  78.3564238  25.6812096  77.1162081  78.1784242  24.4212255  77.9358061
  69.9608406  55.8188103  23.5216903  70.7505394  56.2274069  23.8761710
  69.3665603  56.5505334  23.3554255  23.3745444  36.3027157  13.0846446
  22.9828280  36.0589330  13.9233102  24.1662824  35.7680168  13.0256530
  18.1361005  12.1822475   1.9661251  18.6708106  11.9150229   2.7137266
  17.9919772  13.1193695   2.0975128   4.9188112  64.8646727  83.8198362
   5.6960120  64.4257230  83.4741284   4.3057725  64.1538560  84.0073333
  20.7967699  53.3759177  33.3329218  20.3949202  53.8423596  32.5999958
  21.6723272  53.1478197  33.0205079  50.5384899  61.6378434  87.5635090
  51.0474930  62.0514532  86.8663185  50.4669758  60.7214329  87.2964706
  73.9911166  48.1020343   4.9487750  74.2079475  48.9855080   5.2465843
  73.4389309  48.2376248   4.1787504  37.6706501  60.8243711  58.6261162
  37.2755220  60.9651856  59.4865096  36.9267462  60.6760737  58.0422954
  47.3688015  59.3004889  39.6096342  46.7052991  59.9668229  39.7885068
  48.0858441  59.7813739  39.1963167  80.7184627  69.1226250  32.7724314
  80.7009586  69.8225369  32.1197073  79.8194754  68.7947719  32.7962214
  83.6176296  68.0668648  86.4624401  83.6264112  67.4521277  87.1960974
  83.7994720  68.9179692  86.8609205  55.2097372  35.8535945  77.0223782
  55.4596001  36.7692396  77.1464531  54.3543490  35.7792990  77.4454894
  32.1312860  70.7435896  31.4519758  31.7425654  70.0404588  31.9722981
  31.8050050  71.5482081  31.8549170  36.2785391  33.6491875  63.1459271
  36.8141964  33.2788073  63.8474410  36.4822563  33.1123014  62.3801044
  78.4147307  65.0421033  24.6239628  78.5670388  64.9748806  23.6813520
  78.9029085  65.8211213  24.8905059  85.4015690  12.0912725  82.5250125
  85.6179613  12.1173199  83.4570682  86.2420335  11.9547739  82.0877262
  37.4512212  44.0516016  81.9795913  37.6751340  44.9638674  82.1636184
  38.2134395  43.7070839  81.5142284  57.2770787  71.0398155  11.9851322
  57.0796894  71.9713737  12.0824385  57.9641746  71.0088380  11.3194209
  62.0300619  33.8927897  18.4235350  62.3507941  33.3620539  19.1527005
  61.2223454  34.2877659  18.7518940  11.6544299  54.2738934  60.8156850
  12.3159044  53.8487496  61.3615202  11.8303913  53.9518817  59.9316161
  51.5126959  16.2510785  19.3311985  51.9312343  16.2041072  18.4716340
  52.2048125  16.0126931  19.9479472  46.8956192  68.1181651  38.8751988
  46.8024260  67.7412384  39.7501121  46.0389190  68.5014215  38.6870205
  29.1739914  37.5301817  85.2036077  29.3378551  37.7283193  86.1256283
  29.4046958  38.3357038  84.7408534  38.6619809  16.3846560  82.4586692
  37.8601999  15.9085848  82.6748524  38.8373305  16.9217680  83.2313238
  17.5103817  26.8246329  70.0509488  17.1462013  26.4428543  69.2522940
  17.1952416  26.2560255  70.7535185  49.6538563  69.9764454  49.1326566
  49.3275047  69.5421799  49.9207809  49.1663996  69.5701486  48.4160391
  28.1258525  69.1835110  19.6776180  28.2841869  68.4680592  19.0617522
  28.9944133  69.4099471  20.0101248  27.5159542  34.2953623  65.6951754
  27.0317527  33.8480495  66.3892156  26.8663053  34.4455687  65.0084250
   9.4377910  55.9416452  86.2089901   9.1746382  56.3963721  87.0091188
   9.3843297  56.6094738  85.5253391  41.4137942  66.5126168  39.2705599
  40.8977472  66.0528693  39.9327982  40.9373362  67.3290174  39.1198630
   6.2463163  25.9854172  85.5983424   5.9383752  25.0909099  85.7441529
   7.1993777  25.9241147  85.6627454  67.4267661  32.0932368  84.8531880
  67.6923603  32.1013110  85.7727675  67.8792477  31.3368653  84.4798325
  39.0739690  32.8652294  84.9757582  38.4979731  32.5461987  84.2810064
  39.8832947  32.3665520  84.8637551  83.5790864  16.9064203  44.8137072
  82.7409584  17.0220945  45.2613597  83.4350339  16.1672391  44.2228673
  39.7645848  50.2551874  49.6369651  39.8024210  49.6233826  48.9188962
  39.1986322  50.9548619  49.3107978  57.0836484   5.9281490  64.3926613
  56.4892167   6.6688451  64.2732793  57.5569247   5.8647377  63.5630708
  21.2536052   2.7678935  56.6361137  20.6612426   3.5185335  56.5927782
  22.1094463   3.1240841  56.3975849  11.7280243  67.1140207  72.9583968
  12.1820835  66.4236218  73.4415236  11.5305541  67.7782821  73.6186953
   5.6100881   9.9988074  87.6047065   5.8829331  10.4589944  86.8109714
   5.1977823  10.6741498  88.1433608  22.6067462  64.2930365   5.1532328
  21.8481231  64.0780504   5.6959148  22.2318973  64.5818620   4.3211871
  15.6533733  52.5533064  46.0300915  16.2799884  51.8371596  46.1336246
  16.1030232  53.3186539  46.3882674  62.0506096  55.1825281  21.4869864
  62.2402061  54.2574797  21.3302371  62.0359276  55.5752516  20.6141837
  31.8661726  52.3279506   1.3749760  31.5675871  53.2075257   1.6061170
  31.3712350  51.7473707   1.9530725  61.9175683  41.3069326   6.8094394
  62.7356996  41.5642676   6.3843847  61.4227959  42.1223569   6.8901564
  19.9660001  70.4695520  17.2870764  20.4651040  70.4723929  16.4703029
  19.0737931  70.2463424  17.0217917   9.2473288   1.2594996  54.7800299
  10.0536528   0.9126355  55.1618135   8.8302949   0.5010734  54.3712459
   9.5163232   5.7069779  72.6138268   8.7636283   6.2966648  72.5696496
   9.1642005   4.8962571  72.9812141  17.1279514  45.6588889  66.2310385
  16.8328559  44.9159922  65.7044884  17.5919182  46.2222045  65.6116500
  30.2370285  38.9574554  87.3444337  31.1293687  39.2514245  87.5275809
  29.7525205  39.7624017  87.1612800  81.8124543  29.2756888  22.8045156
  81.2422262  28.6538763  23.2566449  81.7988332  30.0579037  23.3560464
  71.9925788  16.3303117  18.5927435  72.2150214  17.2459441  18.4243141
  72.4064920  15.8477436  17.8771767  31.2104085  18.7243855   6.5819390
  30.8441465  18.4522575   5.7404936  30.6895111  18.2544285   7.2331210
  46.3278239  37.0274957  88.5584125  46.7980640  36.9283063  89.3862215
  47.0173612  37.1026697  87.8987770  15.5461248  69.0484945  69.2739517
  15.2145725  69.9123437  69.0288609  14.9008481  68.7118243  69.8956452
  78.6590304  40.7011647  80.7951246  78.3144056  41.3151903  80.1467126
  79.3869910  41.1687585  81.2045893  65.8354830  19.0793183   4.1789003
  65.5085354  18.4228629   4.7940453  65.0486650  19.5207980   3.8591427
  28.9478073   2.6008149  81.0132647  28.5350799   2.0882356  80.3181745
  28.7010674   3.5057344  80.8222881  40.3294591  43.3944079   6.0290464
  40.3445247  42.4636554   5.8061009  39.8863369  43.4305045   6.8767324
  10.3067369  12.8364226   2.4151771   9.8992494  12.0174602   2.6971104
   9.6060600  13.4857640   2.4755050  51.8079217  36.7998925   1.5625129
  52.0073155  36.7822332   0.6264776  52.0653128  35.9338295   1.8786088
  51.4616259  63.4464169  17.0844188  50.7022528  63.2910314  17.6460590
  52.1493495  62.8916971  17.4525954  71.0570310  69.0447038  55.6720225
  70.9635089  69.4706342  54.8199258  70.6396653  69.6469506  56.2879254
  29.8270511  45.8936423  65.9863833  29.7459500  46.1526307  65.0684620
  30.5751563  46.3945851  66.3113859  17.1504217  42.4817446  29.6428110
  18.0761065  42.2790162  29.7778694  16.7812519  42.5148823  30.5253343
  28.3620645  12.0622194   7.0471340  29.0378618  12.3877828   7.6417248
  28.3833299  12.6675454   6.3059457  76.4869285  55.7289791  28.2977651
  76.0961332  56.5361850  27.9632065  76.3516407  55.7718062  29.2443880
  41.4481409  14.3754782  82.5738661  42.0502428  14.8293780  81.9842221
  40.6479446  14.9001912  82.5494921  38.5721225  57.2568365  35.0687842
  38.5736660  56.4226732  34.5993152  38.7437732  57.0191688  35.9799823
  36.4069126  -0.0143014  38.5517420  35.7647900   0.6842217  38.6781377
  37.0029065   0.3260907  37.8845416  83.1861249  67.2008243  32.5625596
  82.4829299  67.8036631  32.8040840  83.8378438  67.7535293  32.1312692
  41.4564732  26.6045336  19.2225122  40.8757485  27.3633385  19.1658922
  41.4774872  26.2520947  18.3328061  79.5312179  52.1834757  42.5255592
  79.3520361  51.9249198  41.6215268  80.0462338  51.4605469  42.8838391
  10.9721318  68.7800580  51.8458794  11.8167834  69.1740021  52.0640619
  11.0524881  67.8691441  52.1287410  82.5091233  25.3646086  73.2856840
  81.9002186  24.8125769  73.7763244  82.2871707  25.2088322  72.3676957
  59.1622893   8.0874081  80.7703980  58.7093938   7.5352320  80.1330448
  60.0539561   8.1633549  80.4307005  27.4926869  31.0807852  80.6654854
  26.7266670  30.6826951  80.2520007  28.0269086  30.3376204  80.9457442
  33.4877068  38.2128794  61.1460126  33.3264357  37.9420222  62.0498156
  34.0841299  37.5490488  60.7998330   1.4074682  26.6465407  58.0701240
   1.1270674  26.8645102  57.1812503   1.0323482  27.3376884  58.6158637
  70.3998309  21.7178228  18.4461978  71.1788854  21.9359147  18.9578051
  70.4491502  22.2888433  17.6795590   7.2758150  51.9484882  39.1561834
   7.6220016  52.8295356  39.0142600   8.0503326  51.4102395  39.3194090
  84.3832205  55.5643139  68.6372044  83.5053450  55.9103647  68.4765331
  84.8088445  55.5835738  67.7800549  62.0491891  61.9150973  34.6525421
  61.9303855  60.9660170  34.6894756  62.9867836  62.0448390  34.7950748
  49.7876643  19.9262484  20.8033449  48.8548876  19.7246741  20.7289988
  49.8317397  20.6150234  21.4665780   2.5137063   4.5460934  28.0889392
   2.6528859   5.3454677  27.5811385   1.5948880   4.3237954  27.9386451
  63.3871823   7.3614728  39.1243624  64.0140784   6.7392036  39.4931633
  63.9016115   7.8829950  38.5082382  45.6184962  13.4500716  77.6536341
  46.0213832  13.1229339  78.4579318  46.0597473  14.2828515  77.4862816
  39.3345170   8.8233292  47.7520624  38.7689224   9.0929745  47.0284423
  39.2592308   7.8693077  47.7722315  10.2500547  10.9532556  80.4647002
  10.6902691  10.1726603  80.1283758  10.2978255  11.5835838  79.7459262
  74.5752984  23.8395101  14.9395462  74.7272743  23.9083739  15.8820922
  74.2814595  24.7127056  14.6798923  51.1195800  15.2048530  63.4675014
  50.4862186  14.6130477  63.0614821  50.9114140  15.1743814  64.4012949
  48.8725953  53.6382152   0.8935785  48.9711626  53.7414250   1.8400794
  48.6475833  54.5139050   0.5793035   6.5846552  35.2938635  52.3468614
   6.7815642  35.7498511  53.1651120   6.3159942  35.9877074  51.7446705
  77.8666931  35.1775047  28.1318424  77.4491055  36.0077501  28.3610692
  78.0933956  35.2708554  27.2065730  16.8403610  30.6201160  21.9089824
  17.4003196  30.9131017  22.6278966  15.9532528  30.6550091  22.2668277
   5.5948497  47.6745045  47.1067788   6.2483561  48.3671774  47.0100029
   4.8573007  47.9643608  46.5699020  65.1711096  36.7342621  74.4285825
  65.5550320  37.0592602  75.2429606  64.3568985  36.3104645  74.7000371
  10.0843890  45.4000313  31.3065553   9.5220465  45.0649412  32.0049230
   9.5079933  45.9536797  30.7797979   2.8209220  69.8337158  87.5774811
   2.7390903  69.0239614  88.0812996   3.5626393  69.6780935  86.9927855
  55.5504063  37.4253323  80.9646770  56.3841003  37.4081201  81.4346662
  55.2102515  36.5344652  81.0476378  49.8123487  57.1223811  23.0186263
  50.2053036  57.4187957  22.1976777  50.5388954  57.1114680  23.6417175
  18.2338188  31.7229757  88.4183826  17.5128186  31.2430057  88.0109279
  17.8376549  32.1517919  89.1769356   5.1846180  28.7335900  64.4181254
   4.6642839  28.1010942  63.9227131   6.0647741  28.3577862  64.4362510
  32.8965731  69.8745243  11.4306420  31.9763736  70.0084751  11.6576264
  32.9787628  70.2283146  10.5450297  35.0064406  45.4961605  66.7082283
  35.6934420  46.1510241  66.8323840  35.2841145  45.0008673  65.9376353
  79.0695875  66.4211781  59.1879348  78.9066947  66.6379954  60.1059152
  78.8593932  67.2241755  58.7112323  50.1570825  18.5614880  87.6910360
  50.6386599  18.7179862  86.8787408  49.4656153  19.2233829  87.6908526
  26.6106552  44.3188015  16.7298752  26.8545785  43.7936485  17.4920744
  26.8027232  45.2201268  16.9886306  64.5408376  67.1088779  15.2887338
  64.9498092  67.6493842  14.6128440  64.7009528  67.5835302  16.1043931
  60.6786820  21.4774000  28.7408831  60.1595173  20.6781440  28.6520594
  60.9895042  21.6608693  27.8543390  61.2441465   3.9201754   0.4013037
  61.8296760   4.3627120   1.0157533  60.5042591   3.6359355   0.9379658
  76.6365101  39.9281113  38.3282166  77.3312688  39.6910885  38.9425149
  75.8344644  39.6017293  38.7361740  67.5504961  68.9375481  79.9662458
  66.9165336  69.5240331  79.5535004  67.9169670  68.4321342  79.2406511
   2.8556185  24.4562306  38.2456017   3.1837138  23.6047323  37.9565761
   3.5000734  24.7562054  38.8866358  31.1656769  24.0234932  78.9222019
  31.5339726  23.1973446  79.2353608  30.2422800  23.9837258  79.1711768
  55.7054001  33.1212107  77.9101075  55.8120582  33.2600704  78.8511568
  55.5984459  34.0011131  77.5487704  67.7877453  69.7831773  39.9738273
  67.6160683  70.1530075  40.8398438  67.5841993  70.4935336  39.3653909
  52.8215349   3.8445078  75.2711094  52.9177258   2.9045641  75.4243575
  52.4111607   4.1766010  76.0695698  39.8429064  32.5762061  77.3264660
  39.8559975  33.2276946  76.6253076  40.3178879  32.9902463  78.0470180
  69.7633221  30.1030460  79.1582378  69.1005696  30.3592279  79.7996127
  69.5202359  29.2124406  78.9053287  73.5577463  56.4226153  60.8746906
  72.9200842  56.1026142  61.5128271  73.7667196  55.6565944  60.3401124
   6.5767367   4.2400053  31.8336365   6.2500242   4.1129248  32.7243337
   5.8062924   4.1254287  31.2772916  17.1538719   0.9793983   3.1504468
  18.0716045   1.0997971   3.3943787  16.6633431   1.2250401   3.9348405
  54.8681908  29.3834511  82.1983388  54.8437328  29.3113932  83.1525093
  55.7839749  29.5748351  81.9959938  10.8150151   6.2457188  13.7759362
  11.1085699   6.3602673  14.6797814  10.4838064   5.3482295  13.7436003
  64.6971583   9.4529722  78.5223069  64.1305886   9.6127584  79.2770910
  64.9774278   8.5431206  78.6215582  83.1819030  51.4796217  12.9449325
  84.0934757  51.6134034  12.6853760  83.2322668  51.1903115  13.8559731
  70.3361329  44.8858388   0.1510702  70.4973663  44.8618744   1.0942888
  70.3658313  45.8158632  -0.0734393  74.9236173  54.3873422  80.6725066
  74.2624332  53.9104502  80.1708677  74.4195774  54.9768148  81.2334859
  80.5266117  41.4243452   7.3741833  80.3193225  40.6179294   6.9020006
  80.5644545  41.1605944   8.2935501  75.6704799  18.6354132  14.2324372
  74.7304935  18.4564669  14.2072252  75.7320678  19.5904489  14.2510261
  74.9967154   8.9095045  77.0393671  75.7666081   9.3378835  77.4135175
  74.4467849   9.6304725  76.7327508  33.2060287  33.1153304   0.3166804
  33.3894831  32.8339890  -0.5796585  32.3434841  32.7486149   0.5110213
  28.3491798  55.7257436   0.8746842  27.7009127  55.5617147   0.1897928
  27.8295845  55.9019532   1.6590328  78.4012516  10.2047678  49.4079616
  78.9224191  10.6126279  50.0995296  79.0345199   9.7018756  48.8958069
  64.3718924  46.5385322  57.7597537  63.8656405  46.6313081  58.5668061
  64.2765947  45.6162592  57.5219245  56.3705995  29.9875671  12.2594942
  56.6854103  30.0273398  13.1625690  55.9352883  29.1375363  12.1948130
  67.6538999  54.4681603  20.2284253  67.6854839  54.1487540  19.3266416
  68.4832081  54.9310202  20.3477589  49.9720886  51.2903563   1.5411112
  49.2268068  51.6238439   1.0415385  50.7373539  51.5305149   1.0186892
   9.7084524  51.8525779  61.7086553   9.9941019  51.6855533  62.6068417
  10.1015832  52.6962470  61.4852665  10.7372224  47.4432914   2.8206226
   9.8829771  47.8263588   2.6212330  11.3004015  48.1955332   3.0028132
  35.0616949  65.5832856  70.1252594  35.4549896  65.8946426  69.3100245
  34.1222135  65.7230402  70.0066201  25.4277496  64.5926418   5.8550419
  26.0701960  64.1999790   5.2640171  24.5812041  64.3930733   5.4553357
  68.8406074  48.7240911  21.9327600  68.1041643  48.8338742  21.3312360
  69.5680568  49.1766625  21.5058779  31.0251592   7.5920145   8.3438684
  31.3094686   6.7668315   8.7368990  30.1871767   7.3842522   7.9305258
  74.0183732  66.8165058  31.0501201  73.5143117  67.1359707  31.7985158
  74.8291013  66.4812436  31.4329399  67.2685231  17.8653287  58.6440197
  67.8664693  17.8027119  57.8991900  67.2755632  16.9899008  59.0310703
  23.1110298   7.3389091  74.2999789  23.4709853   7.7838717  73.5327292
  23.0556265   6.4194785  74.0395756  82.4355488  30.0385219  86.0786649
  83.3835651  30.1692648  86.0987440  82.1428047  30.5259450  85.3086315
  84.3426864  50.9949459  32.3789505  84.9625986  50.9805027  31.6497509
  84.5952637  50.2488837  32.9228509  39.4307195  64.8208666  37.8318167
  39.2083798  64.3607972  38.6412196  40.2188897  65.3190425  38.0482434
  73.0143790  12.6695598  61.8397647  73.8151023  12.9442811  62.2865335
  73.1466459  11.7383236  61.6621798  24.0307934  18.4044202  81.2575474
  23.6704567  18.6131504  82.1194180  23.7752703  17.4946497  81.1050438
  17.7265439  11.3801230  80.0180344  17.8924897  11.3753001  80.9607276
  18.4487448  11.8894727  79.6503110  40.5866758  50.6243267  13.9655068
  40.1395644  49.7867573  14.0871653  41.4756439  50.3853798  13.7030721
  36.4995238  60.8731288  51.2864967  37.3814056  61.1890133  51.0896892
  35.9502176  61.6560069  51.2465416  14.5254645  41.9925285  56.8563662
  14.5119033  41.6192357  57.7376723  13.6312323  41.8789640  56.5343665
  27.4260585  10.1166563   0.8747245  27.6255181   9.3897952   1.4647420
  28.2284773  10.2407960   0.3678269  64.1092133  32.3953578  30.5131093
  64.8005638  32.3767273  31.1748639  63.9561543  31.4746702  30.3006497
  36.5227016  63.7421313  57.0969411  35.6771195  64.0559111  56.7763713
  36.4109780  62.7950941  57.1798277  86.5228324  13.2353302  78.4353567
  86.2725747  13.7539141  79.1999963  87.3377193  12.8049445  78.6941220
  12.6502495  40.2839393  10.9654625  12.9010666  41.1782966  10.7342751
  11.8520711  40.1214853  10.4627182  47.2432931  53.6206961  66.6509599
  47.1158018  54.4913017  67.0278203  47.0400784  53.0179692  67.3662612
  66.2777448  69.8782736  62.5017427  67.0415714  69.7446589  61.9405405
  66.0893296  70.8140775  62.4310139  30.2689308  48.4849892  29.5001817
  30.0233106  48.1248581  28.6480032  30.5377057  47.7232033  30.0136738
  12.4541982  25.2368854   4.7923025  11.8844362  25.6699269   4.1566310
  11.9008642  24.5656316   5.1916417  54.8515427  54.7638012  59.8617240
  55.2908989  54.9052278  60.7002921  54.3216157  53.9784842  59.9984222
   4.8044505  65.5692537  15.0669578   4.7592906  65.8908363  15.9673894
   4.9392320  66.3557088  14.5382289  73.7021058  66.3405909  46.6768801
  73.8669704  65.4693298  47.0373738  73.8631636  66.9367960  47.4082019
  67.1285586  27.8769511  71.3327015  67.7657422  27.4075894  71.8711516
  67.6586922  28.4518054  70.7806755  28.2486070  48.6963605  33.7121233
  27.9069315  47.8165631  33.5526045  29.1859826  48.5667789  33.8562319
  62.0349347   0.7078247  46.8886695  61.6450949   0.5793059  47.7533889
  61.8271628  -0.0949656  46.4105582  64.3410354  37.5886573  27.6500415
  64.2341231  37.6675322  26.7021067  64.2279341  38.4804653  27.9788551
  12.1258014  43.0271578  55.3416199  12.0338920  43.9590130  55.5401906
  11.2732976  42.6505429  55.5598636  21.0749661  38.3564800  87.5637773
  20.6779655  38.2682821  86.6972651  20.6489540  39.1240075  87.9454147
  53.1121673  55.5541384  42.7356828  53.2626594  55.5230766  43.6804680
  53.6817319  56.2581129  42.4254441  55.4241704  48.0483728  81.5657250
  54.9259546  47.3656821  82.0151092  54.9572419  48.8588308  81.7691151
  52.9981898   9.4729721  40.3932875  52.9791418   8.8232774  41.0959722
  52.3153857   9.1886927  39.7856728  62.6170297  12.3708133  77.1913358
  63.3767346  11.7886529  77.1783100  61.9369453  11.8876308  76.7220260
  58.6439117  50.1936951  20.2174244  58.8651669  49.2894092  19.9948374
  58.1896155  50.1292896  21.0574832   9.0697785  61.5844176  24.3862397
   8.2695168  61.1669880  24.7049333   9.4386541  62.0151759  25.1573492
  75.6519066   8.1951343  65.2768408  76.3794986   8.7578748  65.0119544
  74.9385676   8.4308438  64.6836965  45.7538888  65.2023988  27.9947734
  45.7690888  66.0610244  27.5719698  45.7308547  65.3971435  28.9316703
  12.5550736  44.5491991  41.7186308  12.5415672  45.4758508  41.9581431
  11.6322651  44.2972926  41.6839984  18.5037123  65.5445861  13.1131269
  19.0558248  64.7728253  13.2387808  17.6253623  65.1905922  12.9737663
  18.1979393  33.2068678  68.0042176  18.4017151  32.2968710  67.7883171
  18.4653205  33.7023391  67.2301069   1.0872401  14.0438734  46.5737827
   1.7288611  13.7017816  45.9512657   1.1372380  13.4478682  47.3211178
  17.0745950  18.8068063  13.2396450  17.3989682  18.2452903  13.9437143
  16.1251387  18.6863160  13.2553541  24.3984079   0.3456795   5.5977570
  24.5801489  -0.1247933   4.7842107  25.2618493   0.5885351   5.9320052
  19.5612243   2.5195910   9.9407546  20.4438188   2.2486594   9.6880594
  19.2022581   1.7633931  10.4050173  12.6029466  50.2909937  12.5142934
  12.5163744  50.9035647  11.7838868  13.3305206  49.7214627  12.2642886
  85.4867472   7.5805083  15.0602011  85.6081436   8.3024993  14.4435782
  86.3216168   7.5190110  15.5243589  52.7709986  51.0086880  10.3229086
  53.6420710  50.7292891  10.0411269  52.6675461  50.6274045  11.1947757
  67.3301424  15.8931413  22.8963048  67.1220488  16.2952282  22.0529454
  67.8221877  15.1037817  22.6703964  69.9403595  32.9896762  16.7790757
  69.3745094  32.3184654  16.3976028  70.5832476  32.4985257  17.2906399
  72.7117729   5.8193154  33.7569963  73.5251756   6.0110381  33.2902520
  72.2731219   5.1639181  33.2145282  44.7869006  69.3982861  57.5796690
  44.8911907  69.7483915  58.4644185  44.1820306  68.6635920  57.6825701
   3.1094068  24.6627188  19.3894731   2.6586391  24.6349894  18.5455114
   3.5416817  25.5166560  19.4021820  49.7492896  19.3883747  10.7617681
  49.5437056  19.0731381  11.6418777  48.9478505  19.8226205  10.4696074
  75.5346428   2.5725212  83.5305906  75.2680394   1.9695923  82.8365941
  75.3452055   3.4421120  83.1782313  73.8178373  66.6837000  19.4948126
  72.9972356  66.7030996  19.9872234  74.3674502  66.0603006  19.9697134
   5.3675629  61.8631859   6.6650076   6.0828764  61.2419773   6.8016030
   5.7996746  62.6652567   6.3714199  73.9466513  21.6929608  79.6637505
  74.5454281  21.3311671  80.3170524  73.5471484  20.9256441  79.2540502
  18.9926062  60.5869370  52.3253237  18.4270880  59.8148112  52.3409051
  19.2411423  60.6832743  51.4059866  58.0882796  70.3968276  59.3422093
  58.0855868  70.5479425  60.2874019  58.0209776  69.4463220  59.2514275
  58.3412127   7.7967075  22.4724605  57.6005618   7.1918476  22.4298860
  58.3478840   8.2277254  21.6178197  13.6804546  31.2940895  46.5436155
  14.0059594  31.8477092  47.2533928  12.7449550  31.4910761  46.4959854
  33.1630495  53.6215277   6.0353518  34.0140716  53.2544566   6.2746257
  32.8786997  53.0983395   5.2859179  81.6022195  31.6482276  56.7311243
  81.2333906  32.2029616  57.4184869  82.3675014  31.2409288  57.1369362
  58.4027821  64.1448417  14.2596809  58.2143520  63.2066161  14.2810959
  57.8724165  64.5118578  14.9669597  74.4716731  53.9279413  59.4604323
  74.1862076  54.1136444  58.5658622  73.9585087  53.1633438  59.7217458
  76.5967966  57.3810005  11.6817130  77.3970532  57.1282360  11.2213530
  76.8697950  58.0884603  12.2658400  85.5067660   0.0243445  53.9340463
  86.3470650   0.2936214  53.5630754  85.1666033   0.8139989  54.3547207
  25.7444091  46.8433358  57.1282766  24.9832051  46.3619695  57.4524474
  25.3986581  47.7018193  56.8839527  70.1342323  59.4555731  56.9301776
  69.5475196  59.0869899  57.5905915  70.7082911  58.7290602  56.6875518
  37.2574844  38.8013928  38.2534257  36.7455658  38.1927761  37.7207373
  37.5697624  39.4592021  37.6321357  30.2170312  51.8892565  73.7899709
  30.0270323  50.9632848  73.6392774  30.0578491  52.0173222  74.7251137
   0.2013218   5.7417649  21.3989222  -0.4926680   5.4326644  21.9812167
   0.3059107   6.6669594  21.6209766  11.5055277  66.6403406   5.4295284
  10.9398149  66.1172613   4.8615593  10.9471339  66.8791946   6.1693777
  47.8664718  54.6247117  33.8065345  47.6639167  54.8967804  34.7016222
  48.7244500  55.0095295  33.6275915  68.2391354  24.4156891   3.2630070
  68.9297174  24.1339114   3.8629484  67.6879674  24.9961256   3.7879252
  67.7362320  36.3401392  84.4451425  67.0298378  35.9975883  83.8975133
  67.6406809  35.8764651  85.2770729  76.4270349  50.2507234  58.8138475
  76.4471914  50.6662175  57.9517627  75.5909250  49.7852493  58.8358938
  85.1513020  44.2429769  69.9306063  84.9901649  43.3464325  70.2246722
  84.4137853  44.7449997  70.2774118  73.2420830  20.9604688  11.3957756
  72.9877231  21.7753191  11.8288483  72.4280690  20.4615931  11.3269556
  77.6932508  38.0410268  26.2560343  77.4696960  37.6805910  25.3979311
  78.6502774  38.0546156  26.2681714  24.6629267  62.5290603  58.1751113
  24.5905371  63.3171295  58.7135708  23.7588924  62.2401883  58.0505853
  22.9134710  56.3094189  13.6409484  22.4355057  55.7946640  12.9907112
  22.7776610  57.2184699  13.3737147  30.8738975  63.0306986  35.7070692
  30.0090932  63.3014587  36.0153456  31.4802360  63.6382148  36.1307549
  17.3532971  37.9918217  63.9833680  16.4542753  38.2974452  63.8625959
  17.8901563  38.6416846  63.5298349  77.9671606  62.2852595  61.1396534
  78.6224978  62.9829152  61.1332142  78.1506642  61.7769791  60.3495842
  32.5796942  40.3155243  31.6243842  31.7740398  40.3925281  31.1132841
  33.2817115  40.4109899  30.9807305   4.2341083  34.6595717  47.0806489
   3.9688867  34.2217710  47.8894875   3.4384497  35.0917909  46.7702526
   1.6899457  18.0899960  13.8340676   0.9463497  18.6237139  13.5539924
   2.4580492  18.5611433  13.5111602  27.9596087  -0.3406314  54.9298690
  27.7736468  -0.0785695  55.8315194  27.7471526   0.4325261  54.4070671
  51.1914896  53.1050457  11.7866844  51.4407462  54.0288419  11.8132099
  51.9443978  52.6650581  11.3920048  59.6676192  35.2819966  75.6414953
  60.2672756  35.8060922  75.1104888  59.8731401  35.5242532  76.5444375
  56.8709571  30.4536411  35.1575658  56.2637434  30.4353390  35.8972876
  57.7318505  30.5771278  35.5573725  73.2253231  30.3199257  28.4647477
  73.8510101  30.9173729  28.0551082  73.0927889  30.6770786  29.3428754
  85.0657430   5.6662148   1.3986866  84.6948323   6.3109122   2.0012000
  85.3130753   4.9300026   1.9581956   6.1392548  16.2463260  78.2024564
   6.1082562  16.8528013  77.4625519   6.7663252  16.6402704  78.8089400
  82.8335904  63.6885649  11.3568325  82.1219035  64.2412346  11.0338933
  83.2403884  63.3352870  10.5656675  64.2510055  41.5315967  66.2835946
  65.0534839  41.7700935  65.8195046  64.4565775  40.6965580  66.7039305
  84.9390864  19.2546552   3.8665206  84.2424014  18.9874440   4.4660705
  84.9690449  20.2082481   3.9439483  53.8929936  16.7371905  49.8670975
  54.6384791  16.1385888  49.8206311  54.1224686  17.4520570  49.2733475
   8.3766773  51.3525685  48.8175687   8.5160503  52.2805382  49.0064580
   9.1718488  51.0791844  48.3601900  37.3026195  36.7218792   7.7452317
  36.4586536  36.4803029   7.3636637  37.5108362  36.0022915   8.3411103
  21.5974370  22.0665686  28.2509840  21.2397926  22.8239995  28.7142559
  21.0657633  21.9978621  27.4579932  72.9101091  41.3222524  84.7553424
  72.8154511  42.2712244  84.6733427  73.8168787  41.1492409  84.5022261
  41.3644017  34.4292915  87.3893905  41.0127842  34.5437451  88.2722820
  42.1843102  33.9524037  87.5180757  57.0812490  52.0730876  31.2674755
  56.7132898  52.9547475  31.2081985  56.3179609  51.4958228  31.2871849
  80.7606452  64.6041406  87.2608382  79.8547162  64.3800033  87.4736455
  81.0776135  65.0766749  88.0305617  78.3492176  64.0173211   8.3734513
  78.6068328  63.1933370   7.9600309  77.7897386  63.7540301   9.1041311
  71.5133177  30.8624545  73.3291967  71.8702263  30.8119428  74.2159304
  71.5691390  29.9664322  72.9971428  20.5388079   1.0602863  21.8402727
  21.0624608   0.3647153  22.2380168  20.6576369   0.9405624  20.8980531
  12.6542303  49.8428573  62.9439638  12.8269902  50.5742945  62.3511860
  12.0107401  50.1845321  63.5647782  72.4725343  57.5674246  14.5440195
  73.0741951  58.0986563  15.0655833  73.0408241  57.0676751  13.9579060
  49.8196828  26.9747976  75.9181912  49.9264386  27.8999567  75.6970225
  48.9892094  26.7258416  75.5125232  45.7337738  65.8772830  80.4205608
  44.8362609  65.7271122  80.7174634  46.2393170  65.9773030  81.2271920
  66.5680887  33.5603823  20.9221059  66.8314884  32.8362342  20.3542485
  65.6166084  33.4792540  20.9879497  39.1811952  58.5077737  29.8278375
  40.0854328  58.6736091  30.0944548  38.6823922  58.5322391  30.6444334
  17.8436839  52.5096067  84.6066659  18.1343683  52.9451335  83.8053851
  16.9610538  52.1995362  84.4040525  68.3062479  52.2327361  41.4763328
  69.1150270  51.7849073  41.7244406  68.0053834  52.6488580  42.2841415
  54.0416875  57.6015737  30.4075163  54.8688075  57.3240184  30.0137303
  54.1649509  57.4626639  31.3465275  65.1029021   3.0920647  86.5064513
  64.7076390   3.9638338  86.5106448  65.9925494   3.2340065  86.1830134
  83.4223309  34.4762385  73.4142608  84.3331986  34.7096729  73.2352073
  83.0323266  34.3522065  72.5489606  44.7105901  32.2534018  30.4569730
  44.7954865  32.4122796  31.3970700  45.6062217  32.3059731  30.1233383
   0.8260160  26.7703624  24.6303257   1.2879555  26.6822011  25.4640351
   0.4298937  25.9113499  24.4839824  51.8536640  29.9252654  10.1014886
  51.6363138  29.5643953   9.2419751  52.8042730  30.0356062  10.0815085
  19.6857040   6.4488500  32.2421950  20.1408936   7.2644300  32.4516312
  19.6467287   6.4350756  31.2858880  13.7041895  29.5360227  82.3859594
  14.3702389  28.9305107  82.7114824  14.1755513  30.1069862  81.7792877
  51.5583585  13.5734912   6.7956801  51.3645478  13.3760030   5.8793462
  52.4515394  13.2547927   6.9256456  66.9709879  62.7550348  86.8890674
  67.2386569  63.5627479  86.4506786  66.0451658  62.8883293  87.0923354
  57.4680317   2.4375713   4.0521991  56.8338212   1.7232617   3.9907929
  57.6867865   2.4842927   4.9828952  65.4568904   7.5909676  49.8425490
  64.6004189   7.6499713  49.4192206  65.4311691   6.7621063  50.3206277
  18.3331638  56.8370178  14.1369727  18.2222112  57.4025398  13.3727043
  18.7368342  57.4016334  14.7961323  56.9134497  45.1932519  85.6715056
  57.3529721  45.4332230  84.8557447  56.0034723  45.0399910  85.4171748
  61.6627250  20.9638210  17.2628271  60.9217193  20.9334169  17.8679866
  61.2979319  20.6840666  16.4232467  22.1560450  52.6031407  70.1077595
  22.8813232  52.1898715  69.6393454  21.3840110  52.4028147  69.5785479
  73.0137049  53.3393796  28.8253759  72.4864052  53.3048493  28.0272565
  72.5975595  54.0169486  29.3582502  52.8370462  19.1198265  26.3200349
  51.9249998  19.1554811  26.0317089  52.8250722  18.5397083  27.0813176
  42.3670961  66.4153072  36.9095680  42.1231265  66.4474512  37.8345963
  42.6087709  67.3160993  36.6941644  56.6203795  58.9738142  28.3582131
  56.8931169  59.1859568  27.4655532  55.8120658  59.4703154  28.4860696
  46.5196096  40.5150935  67.8564331  46.0909558  39.7907907  67.4005019
  45.8134300  40.9470155  68.3370427   2.2374378  37.3654675  74.0964998
   2.9208128  37.4791459  74.7570357   1.4280101  37.6110004  74.5445758
  69.3999899  21.7002217  52.3717402  69.8254937  22.1926978  51.6698530
  69.2611567  20.8281586  52.0023309  72.4343528  58.8122557  20.9198745
  72.0860704  58.2988297  20.1909541  73.0918732  58.2437101  21.3206920
  85.0309215  64.9736841  16.8527848  85.0312686  64.6210322  15.9629150
  85.1060066  65.9206582  16.7351659  13.1668550  44.4233106  76.0916559
  13.1955678  45.3385287  75.8127594  12.2492386  44.2702789  76.3170298
   1.0505575  18.3589110  86.3449490   1.2539771  17.9705429  87.1958441
   0.1463860  18.0966460  86.1719667  34.0395945  44.3377754  45.8202320
  34.5889864  44.0373288  46.5442017  34.5578125  45.0200888  45.3934646
  61.4227578  13.6795886  35.0851766  61.3177682  12.8368955  34.6435010
  60.8928952  14.2877707  34.5698206  30.3537599  12.1602983  11.9854385
  30.5671119  11.3987918  11.4461607  30.5123890  11.8697644  12.8835803
   1.4668704  22.1129952   3.8899759   1.6919570  23.0339453   4.0219557
   2.1699528  21.6299809   4.3242618  83.7038756  56.7772012  86.1478816
  83.3521670  56.0892860  85.5828104  84.2513288  57.3067745  85.5681585
  25.5506689   9.1941248  31.6671116  25.8334288   9.5743732  32.4987905
  25.3520888   9.9494186  31.1136415  64.3938460  12.2849312  30.3921367
  65.0121775  12.9234726  30.7473308  64.1783881  12.6189132  29.5213522
  55.2291611  42.0166845  86.1681850  55.9973717  41.5368791  85.8585544
  54.9257883  41.5188560  86.9273712  47.4438096  63.9332976  26.4332165
  46.8375660  64.4712279  26.9424625  48.2781980  64.3996415  26.4837254
  51.2606547  58.7243773   8.2588476  50.9333478  57.8514676   8.4759439
  50.9827170  58.8661759   7.3539302  85.6417537  11.2370430  48.2610086
  86.4179866  11.4785530  47.7556700  85.8951702  11.3810143  49.1727565
  74.8863716  53.7508126  24.2290474  74.7859541  54.5401102  24.7611729
  75.7754510  53.8092812  23.8792602  72.4685920   9.1094398  38.9395817
  73.3691370   8.8988564  39.1863713  72.5532212   9.8346852  38.3206400
  79.3885244   4.4934509  78.4908530  78.7544028   4.7736131  77.8308297
  80.0821459   5.1519010  78.4512984  37.0678859  53.3934143   8.9568682
  36.5241567  53.4879026   9.7389566  37.9425196  53.6605326   9.2395264
  66.2246206  42.2521373  28.9060942  65.8748546  41.5396908  28.3710096
  66.4011560  42.9560440  28.2819287  72.1336864  46.2461855  82.7169632
  72.7889612  46.8926094  82.4543175  71.4709008  46.7536930  83.1853468
  26.3291360  27.1044383  83.3306238  26.4446781  27.7601956  84.0182750
  26.6753252  26.2964765  83.7095466  50.9426303  51.7414519  63.3566169
  50.4509995  52.0862474  64.1020343  50.4190737  51.0030787  63.0452887
  43.1899713  43.7394598  82.2053472  43.7405394  44.4323616  81.8406641
  43.7560167  43.2885587  82.8318555  17.6364484  40.5916932  75.4246138
  18.2120376  41.2911731  75.1153294  17.0400906  40.4312937  74.6932718
  12.2505281  12.5330617  23.5993421  12.5240061  12.8640129  24.4548612
  11.6031665  13.1679778  23.2926887  46.4881313  56.8654141  40.7331043
  47.3454085  56.4445962  40.6681432  46.6855223  57.7961745  40.8377643
  62.9952418  48.0283886  29.3642987  63.9489400  48.1055662  29.3371849
  62.6782387  48.8266801  28.9418397  42.2038657  59.1743417  75.3095788
  41.3557601  58.8001694  75.0709496  41.9884502  59.9084678  75.8848064
  31.4422826  36.9138338  18.7020244  30.5357170  36.7675559  18.4318885
  31.3975105  37.6641783  19.2946546  51.0367513  37.3700464  33.2340326
  51.2100683  36.4757782  33.5281030  51.0896131  37.8985242  34.0303671
  56.8365951  44.9123613  26.4460541  57.3116373  44.9451895  25.6156993
  55.9772839  45.2831381  26.2452044   3.1937125  67.1742296  87.9694109
   3.3408125  67.0269563  88.9037042   3.7613426  66.5380166  87.5343696
   7.1887564  37.1655834  54.1744925   6.4978625  37.8279611  54.1621118
   7.8209845  37.4908905  54.8153472  83.8411755  63.4061912  67.2629551
  83.2864123  62.7011990  66.9291055  84.7167428  63.0218364  67.3063737
  80.3123886   3.2400230   0.7873679  80.6624168   2.9739064   1.6375996
  80.4113934   4.1920079   0.7749288  50.2701414  62.9295799  24.6052249
  51.1158170  62.4864693  24.6739098  49.9935255  63.0596515  25.5123063
  25.5855551  50.5984390  34.6672988  26.0136516  50.5327522  33.8136886
  26.2699789  50.3709726  35.2966278  83.5488204  48.1756579  65.9004917
  84.0982378  47.4001545  65.7866195  82.9172821  48.1292624  65.1826904
  11.9401804  27.8257995  78.3708753  12.3412256  27.0070123  78.0793586
  11.0974990  27.5615986  78.7400877  19.2974447   9.6131255  60.7383478
  19.7973914   8.8157732  60.9130312  19.9169967  10.3245860  60.9002464
  14.8316620  38.4075376  62.7180633  13.9119870  38.6335353  62.8571848
  14.8443956  37.9684456  61.8676118  68.5744531  64.8545667  47.5257291
  68.4042364  64.3650405  46.7209793  69.5290236  64.8904364  47.5868881
  11.0685532  34.6631542  78.1131884  11.0345398  34.9019061  77.1868664
  11.4072335  33.7678839  78.1174994  41.4011368  11.6092832  79.1830301
  41.1430601  11.3134859  78.3100283  40.8615192  11.0916029  79.7805682
  43.7572065  12.5627135   9.1785049  44.1511018  11.6951441   9.2701654
  44.5015480  13.1520162   9.0563988  56.5510532  10.2283123  79.5414722
  55.9197954  10.1508866  80.2568397  56.0161993  10.4097882  78.7686659
  80.9208897   6.9777731  23.7342456  80.0942603   6.8623180  24.2028455
  80.8359637   7.8290717  23.3049321  30.9475640  59.9223675   2.3368090
  30.9186743  59.8776425   3.2925270  31.8718206  59.8014138   2.1192042
  15.5001771  64.4350522   7.2029121  15.9848540  64.1030062   6.4472233
  15.7579815  65.3546093   7.2675912  35.6563892  10.9077632  73.1303215
  34.7901877  11.2694553  72.9429564  36.2663170  11.5264720  72.7285512
  57.5283639  26.9133724  71.9335756  57.6744745  27.8358703  72.1430539
  56.8593072  26.6293842  72.5564284  60.0395005  27.9855629   5.5061753
  59.8904669  27.6983396   6.4070213  59.7814292  27.2358373   4.9699453
  67.3207467  44.1214042  44.2678353  67.1185571  44.2198884  43.3374311
  67.0507535  43.2275135  44.4782990  20.3136130  62.7549489  27.3708843
  19.5102553  62.2592709  27.2122920  20.7407415  62.2941649  28.0930139
  73.5624185  45.8237833  22.1933280  73.5157400  44.8902107  21.9871846
  72.7095545  46.0272026  22.5773534  75.7865544   5.3169501  36.5103237
  74.8387164   5.2273830  36.4112650  76.1102620   5.4381851  35.6177166
   3.0465571  17.9653991  50.4513625   2.5869891  17.1263237  50.4200324
   2.8055216  18.4011690  49.6339040  31.0163480  41.9086902  25.0331104
  30.0911469  42.1291450  25.1409732  31.4419703  42.2759345  25.8078420
   8.2012648  13.6220107  46.5754094   7.2822581  13.8387260  46.4182693
   8.6821182  14.4015022  46.2971922  43.7441947   2.0401897   2.8542572
  42.8901326   1.8849218   2.4508945  43.5712041   2.6841009   3.5410501
  79.5508882  59.2305725  35.6470067  79.1356487  60.0220959  35.3045176
  79.5801450  59.3660857  36.5941139  40.6375015  38.1913145  16.3254862
  39.8321549  38.6884183  16.4687915  40.8138756  37.7729374  17.1681514
  81.3243314   6.2002520  62.5763982  82.2590941   6.3600752  62.4463710
  80.9992050   7.0014421  62.9870307  31.6543379  48.1553857   6.7717899
  31.8874161  48.8286698   6.1325756  32.1503119  47.3836785   6.4984593
  45.0211394  21.0721919   8.9712363  45.1890348  21.9809402   9.2206749
  44.0773628  20.9624224   9.0872891   4.6644235  22.6973905  16.3759657
   4.4000865  22.4168939  17.2521389   4.1525633  22.1466647  15.7835704
  29.5981137  43.4034948  51.5640545  29.8475246  42.5484217  51.2135177
  28.6854910  43.2956311  51.8318550  44.3410480  19.6248388  78.6719720
  44.5264714  18.9162981  79.2882674  43.3877028  19.6242736  78.5861551
  65.3670676   8.8421688  61.0013180  65.9097198   8.9080746  60.2155592
  64.6167103   9.4089059  60.8224194  36.0614696  49.1782066  64.1106220
  36.5539913  49.9842058  63.9556399  35.1454464  49.4317000  63.9971565
  79.7070852  23.6054036  48.7735356  79.4755838  23.7579772  49.6897016
  80.1307141  22.7470504  48.7732868  72.5499899  54.5950817  46.0459829
  72.4420927  54.4609777  45.1043853  71.6561589  54.6382287  46.3857420
  52.9728679  20.0128522  37.7318147  52.0296351  20.0675852  37.5783609
  53.2987846  19.4567566  37.0241653   7.1025938  59.8157337   7.1751972
   6.9635258  58.9055272   6.9136323   7.6334153  59.7582083   7.9696474
  78.9105613  56.6465566  29.7748037  78.8594622  57.0408327  28.9040758
  78.9523353  57.3923581  30.3733577  85.7734254  57.5621620  51.4649118
  85.8109826  57.2423316  50.5635074  86.4492374  57.0636716  51.9242779
  51.3815747  28.3519721  59.2233071  52.2602386  28.6274395  58.9619658
  50.8626001  29.1560200  59.2032006  50.2021137  65.7496940  71.8120285
  50.8875305  65.1603989  72.1269363  49.3843057  65.3312337  72.0809391
  74.7708570  44.2644172  61.3418979  75.2453277  44.5990156  60.5808766
  74.1737849  43.6082850  60.9824159  62.0675821  49.4770437   9.6979978
  62.7314414  48.8572736  10.0003350  62.1375501  49.4563176   8.7435834
  46.7616472  33.5831184  18.9797087  46.1092979  33.0348235  19.4156501
  47.3694581  33.8317841  19.6761016   0.5967217  64.3539083  44.6374201
   0.0192487  64.6566321  43.9366241   0.4957724  65.0070171  45.3298723
  65.8107861  20.8003164  44.5276852  66.1666901  20.5192740  43.6847265
  65.0795890  20.2042123  44.6896802  48.7409285  42.1434819   1.7862477
  48.1157950  42.2718731   2.4996590  48.7202710  41.2017206   1.6162749
  81.8040165  56.4327272  61.8281613  80.9191495  56.7819115  61.9345219
  82.0768025  56.1973181  62.7149545   4.8184592  56.7791149  27.4408174
   5.1091322  57.6464677  27.7226687   5.4280126  56.1734672  27.8625606
   8.9213388  40.0651400   2.1274905   9.3622232  40.0241400   1.2788612
   9.2728025  40.8530121   2.5421743   1.0518381  38.4014936  80.2282597
   1.7393684  38.7257614  80.8099678   1.5245662  37.9878497  79.5060003
   4.0874665   3.1308515   6.3485097   5.0249583   3.0101306   6.1976209
   3.6697102   2.7531435   5.5745276   6.9090910  17.8252260  70.3377526
   7.1398528  18.6318841  70.7984950   6.6642262  18.1133305  69.4583956
   5.4182105   8.3604675  51.1808684   5.6333646   8.9334113  50.4448821
   5.5445048   7.4749898  50.8399714  82.7823500  43.5396674  48.3536786
  81.8983239  43.2771508  48.6102221  83.1753104  42.7424488  47.9983527
  62.3855870  42.1346726  24.6352244  61.9847546  41.2665511  24.6791573
  61.9535868  42.5607609  23.8949161  75.7068762  41.0274041  66.1504126
  74.8929441  40.9706882  66.6509418  76.1863865  40.2319990  66.3819996
  21.9626559  21.8112899  86.7498160  22.7297133  21.5815819  86.2253268
  21.4209443  21.0221831  86.7402848  41.2158908  26.8850272  73.6497289
  40.6398905  27.1207226  72.9224716  41.5835237  27.7184219  73.9438907
  84.7494997  65.5466862  62.3632553  84.8904108  66.4903060  62.4404399
  84.0240889  65.3632248  62.9602084  24.1870515  24.6514512  44.2379741
  24.2135640  25.6052674  44.3138926  24.5312564  24.4711501  43.3631905
  60.1784381  44.4448984  75.1549648  59.3269549  44.6749541  75.5268285
  59.9786471  44.1389227  74.2702647  69.6860215  11.5859935  78.5956402
  69.9619108  12.0929535  77.8320248  69.9368069  12.1261030  79.3450535
  32.0868950  49.7961196  19.4244502  31.6028154  50.4056539  18.8673447
  33.0071199  50.0092735  19.2695841   0.7770702   8.6810040  80.2605845
   0.0671912   9.2095342  79.8959483   1.0611187   8.1270892  79.5334485
  15.9593691  43.5602491  26.4469081  15.5665530  42.7318392  26.7219796
  15.8165555  44.1504176  27.1868657  36.7384210   7.2990003   8.9799126
  37.4551811   6.8353817   8.5468484  36.7271518   6.9453089   9.8692985
   7.6498024  15.4517948  81.6825402   8.5509814  15.1509303  81.5659690
   7.1122534  14.6987869  81.4370773  18.1810671  24.9508415  12.0881875
  17.8952917  24.8453686  11.1807517  18.9805456  24.4280914  12.1498175
   5.3899851  13.2105699  18.8839701   5.7646031  12.3908772  19.2064559
   4.7498636  12.9389224  18.2261829  73.4837078  25.1616274  77.6878410
  74.0154107  25.8070100  78.1536791  73.0438730  24.6687540  78.3805552
  47.4866106  43.1427894  14.8678411  46.9219087  42.3856455  14.7126743
  47.8595030  43.3433994  14.0093897  40.3294564  45.6590647   8.6671451
  40.6629081  46.3970309   8.1568043  41.0906506  45.3394533   9.1515661
  27.5085902  39.9549605  26.4268286  27.6221278  40.0675235  27.3705820
  27.1084019  40.7738348  26.1343802  66.3928142  43.8057890  38.6826155
  67.3203603  43.9659472  38.5087208  66.1830616  43.0279096  38.1657602
  46.2736747  66.5731644  66.4224031  46.2973072  65.6392056  66.2140902
  46.8782778  66.6698288  67.1581633  60.7229896  43.6675180  12.8860947
  61.3997511  43.2411585  13.4118735  61.2027035  44.2827592  12.3314915
   8.7271986  58.2910423  54.6783157   8.6388381  58.0051050  55.5875265
   9.5804366  57.9553381  54.4035077  35.9969283  39.4053531  44.1609006
  35.8119036  40.2078125  44.6488111  36.1917024  38.7545478  44.8352501
   2.9217352  48.1105170  36.4920036   3.3862329  47.5817978  35.8432126
   3.0832120  49.0150808  36.2238218  76.2766671  13.6096325  85.8061491
  77.1198997  14.0580616  85.8701964  75.6758153  14.1558436  86.3129651
   4.3913555  57.8207078  54.0762060   4.2203921  58.7114435  53.7702758
   3.5224503  57.4355879  54.1898647  62.1814069  39.7517701  64.1187145
  61.4063238  39.1940266  64.0523797  62.1244708  40.1379985  64.9926812
  20.5017539  41.4954640  16.0691432  20.1919352  40.9644742  16.8028284
  19.7771663  41.4858819  15.4437531  44.7329424  42.9848693   4.5129753
  44.2003804  42.1895388   4.5206464  45.1426258  42.9904553   3.6478971
  33.9713834  58.5227834  81.8672359  33.9465846  58.1505304  82.7487372
  33.2340251  59.1326961  81.8439752  57.7673618  35.9209511  15.8210822
  57.5950380  35.6177624  16.7124928  58.6928788  36.1651382  15.8258643
  32.3623466  57.2221774  36.9148366  32.3904907  57.1291260  35.9625860
  33.2700764  57.3934470  37.1656855  74.3296998  60.3570640  19.0769021
  74.1044638  60.5385453  19.9893522  74.0218036  61.1257560  18.5967518
  85.7414853  42.3461494  85.4077135  84.9579268  41.7972036  85.3772750
  86.2981944  42.0080408  84.7062940  59.0899809  50.6460597  47.2915067
  59.1955158  50.9207802  46.3806704  58.2554870  51.0290332  47.5620307
   3.3828963  17.0911382  23.6361414   3.3289316  17.1208829  24.5913560
   2.7409855  17.7363892  23.3397744  79.7681756  36.9252960  65.4567088
  80.4113187  37.4987845  65.8734939  79.4408999  36.3752807  66.1684711
  57.4193709   7.2168585  34.2759653  57.3755451   8.0039471  33.7330079
  56.7456655   6.6398778  33.9161789   5.1125660  58.5778698  22.0146442
   5.6526181  58.0005138  22.5543068   5.5234866  59.4382462  22.0990753
  82.0130495  67.3636745  76.2486977  81.5757810  68.0794517  75.7875133
  81.4080131  67.1265980  76.9515188  54.6725177  38.4136908  56.9235463
  55.0969615  37.6107475  56.6212858  53.8048024  38.3924448  56.5199987
  40.6244451  47.6327365   6.6584121  40.4294053  47.5974154   5.7219594
  40.8717283  48.5436787   6.8173685  60.2852220  68.9636330   0.5543794
  60.5621816  68.2482905   1.1269267  60.4597335  69.7569681   1.0607359
  49.4694977  28.3465163  25.3451222  49.3595098  28.9171352  26.1057329
  49.4293652  28.9383595  24.5938947  48.3374310  28.4163452   0.6883980
  47.9941294  27.5426415   0.5012677  47.8518757  28.9953721   0.1008644
  23.1976244  46.9810386  71.8021507  22.8477504  47.8708338  71.7564942
  23.0900513  46.6356128  70.9159561  49.6845375   0.5766795  46.0862646
  50.3303479  -0.0712276  46.3680042  49.8252630   0.6607110  45.1432021
  67.6374553  15.0048772  65.9098272  67.5263056  14.2010503  65.4021463
  67.3556030  14.7705870  66.7940779  76.0771349  63.7542785  16.3577565
  76.9476063  63.3676797  16.2626107  76.1391820  64.5974597  15.9089497
  47.8204871  24.7978747  28.7174985  47.2259105  25.5407921  28.6136513
  47.7107827  24.2891807  27.9141137  26.0171229  20.8768954  71.3568180
  26.8164588  20.5786452  70.9228356  25.3386331  20.2764314  71.0480682
  40.5783271   0.5413962  17.6094485  41.4476438   0.5748203  17.2101954
  40.0121104   1.0007562  16.9892721  65.7175956   3.9992523  83.1814467
  65.4194009   4.0754450  84.0878167  66.6709880   4.0642218  83.2367064
  57.4317275  17.2424716  21.4560755  57.7936856  16.3638960  21.3406497
  56.5687504  17.0969479  21.8437935  13.9135588  49.2721283  24.6053828
  14.0722694  49.9330707  25.2793249  13.6294392  48.4979566  25.0913520
   7.9376081   8.7704641  38.1042199   7.1605186   8.2146763  38.1630722
   8.3184397   8.5602053  37.2515826  71.6439028  47.1054740  41.6650044
  71.8306003  47.3880687  42.5602788  72.3117473  47.5382035  41.1330640
  77.5130674  30.2690222  37.5265102  77.3977487  29.8693546  36.6644202
  78.4177149  30.0668239  37.7651743  31.7814311  42.9401057  27.9447728
  31.6022652  42.0606957  28.2775932  31.4634123  43.5256646  28.6319530
  78.7927761  57.6308187  76.5815036  78.6148064  57.2313179  75.7300591
  78.3805448  58.4932985  76.5322507  59.4415793   5.8930582  86.0180987
  59.0152187   5.0361168  86.0280965  58.8154403   6.4669701  85.5767294
  60.4542646  25.8032361  10.9143417  61.2675682  25.9493865  11.3974659
  59.9620428  26.6170599  11.0222319  23.8392308  25.7449352  15.8291483
  23.6985918  26.6756292  15.6551909  23.5786246  25.3077028  15.0185041
  43.0271878  55.3545604  33.7984412  42.2942486  55.0335795  33.2730810
  43.8052740  55.1195766  33.2928759  75.2611978  10.5086050  37.0735690
  75.2447564  11.2834677  36.5118311  74.3718002  10.1581996  37.0243779
  10.9522287  42.9158954  11.3981740  10.1744403  42.9024214  10.8404146
  11.6870217  42.9010406  10.7849119  27.5179579  60.7568414  39.0949903
  28.1836214  60.1658621  39.4469385  27.1140113  61.1503807  39.8684151
  48.2611332  59.1239898  62.3086897  49.0765120  59.6222620  62.3644925
  48.5312072  58.2109375  62.4068085  81.8040573  62.8585702   4.1605883
  81.0366511  63.4291808   4.2020994  82.2132623  62.9444832   5.0216353
  41.5221424  16.1293435  73.9882101  41.2853762  15.9512377  74.8984035
  40.9867569  16.8845696  73.7448424  54.3425272  12.4319453  23.9591984
  53.8311624  12.4618676  23.1505931  53.7407327  12.0705207  24.6099268
  66.7437424  68.6093837  56.0722156  65.8202511  68.8233479  55.9394942
  67.1657745  69.4546865  56.2257861  44.6638332  69.4954790  89.0729088
  45.3339508  69.9339448  89.5972388  44.9965378  69.5362967  88.1763189
  32.9596085  48.2344937  73.6537240  33.0978397  47.3421331  73.9712402
  32.4347116  48.6529027  74.3361088   5.6405477  64.2156900  10.6703368
   6.1583348  64.2395106   9.8656251   5.8175163  65.0556017  11.0939667
  12.7596816  55.2155959  25.5800560  11.8212325  55.0292111  25.6084431
  13.1428021  54.4511100  25.1499261  53.8670812  53.4174068  21.3764868
  53.3443141  53.4260041  22.1782800  54.6765635  52.9700392  21.6231293
  62.9730522  15.1189975  28.0161621  62.4113555  15.2653271  27.2550337
  62.4652296  14.5354848  28.5799537  80.2886728   4.0324908  66.1773791
  80.7497872   4.1782113  67.0034366  79.3880322   3.8382066  66.4368632
  28.0422807  37.9924482  69.8138203  28.7777632  38.6022756  69.7554426
  28.0958011  37.6368764  70.7009145  54.8230904  66.6521918  15.9789244
  55.3484366  67.4151217  16.2201322  54.3560907  66.9231539  15.1885304
   9.7780925  63.2870804  70.9844281   9.2223211  64.0096465  71.2764011
  10.5759609  63.3726193  71.5062719   6.9974440  40.8404637  23.0033118
   7.0185899  40.3248722  22.1971170   7.7367552  41.4429585  22.9217594
  44.6112659  57.9137471  42.8492408  44.8570811  57.4287192  42.0614878
  45.4361311  58.2720016  43.1770867  79.0025414  58.5172976   8.6624495
  79.3004112  57.6262229   8.8454559  79.0783562  58.9721931   9.5012307
  29.2338591  63.3478365   0.4258123  28.8337697  64.1039696   0.8552575
  29.4140981  63.6462973  -0.4656286  37.0734790  47.0829742  67.6159078
  37.5967149  47.0131947  66.8174174  37.7179368  47.1823727  68.3166402
  60.9139567   7.0175575  40.0191368  61.7859175   6.8840509  39.6475292
  60.8130154   7.9686456  40.0575302   3.0568459  42.9842699  59.4114518
   2.8100735  42.9517913  58.4871789   3.5751356  42.1913679  59.5489798
  74.0272643  67.7384889  12.0676776  74.4966822  68.5575171  11.9093375
  73.1587958  67.8837591  11.6923235  26.4892269  32.0012121  71.2230375
  26.5213312  31.3455694  71.9196965  26.3847220  32.8342555  71.6827649
  11.5883306  65.6106549   9.4212329  12.4913410  65.7984739   9.6772174
  11.1806369  65.2668172  10.2160872  24.4437622   9.8920055  37.1868375
  24.5026251   8.9433216  37.2998234  25.0732929  10.2474453  37.8142014
  38.2724314  19.9867021  86.4279333  38.7335464  19.1734994  86.2222490
  38.9444293  20.6654828  86.3654233  39.8009075  29.3634299  77.8671623
  39.0522435  29.9272596  77.6726627  39.6042575  28.5409870  77.4186667
  16.3748967   2.4718341  27.2344223  15.6788542   2.8748615  27.7533882
  17.1781070   2.6703916  27.7157330  46.5773095  10.8914206  44.1556034
  47.5057416  10.7847356  44.3626396  46.1235746  10.6697443  44.9687554
  61.0559529  43.9806230   6.5186126  60.5250595  44.0149340   5.7228696
  60.9830615  44.8584616   6.8932031  58.4607499  27.8323891  14.0948498
  57.7367428  28.2550981  14.5567618  58.1136104  26.9789001  13.8354612
  80.7550246   2.4943725  12.3019133  81.4600722   3.0899406  12.5557602
  81.0055390   1.6515828  12.6803043  45.2275007  54.0314188  32.5939620
  46.1666973  54.0762945  32.7732043  45.1636611  54.0702870  31.6396845
  83.6634181  24.2204279  22.3498033  83.7116723  24.9399637  22.9792249
  82.8574592  23.7568480  22.5773019  78.6974512  52.2690128  55.9351399
  79.4469394  52.3403033  56.5262549  78.9147293  52.8451968  55.2023139
  65.5581719  23.3781141  74.7681415  66.4372933  23.5989129  74.4605293
  65.3013305  22.6237129  74.2379122  10.5926290  67.7831130  67.7595405
  11.5187783  67.9726674  67.6093791  10.5852559  66.8976775  68.1231082
  77.0542152  54.3570963   7.4310160  77.5286710  55.1590164   7.2118183
  76.3493099  54.3116932   6.7850447  75.8149778  60.0890410  35.1531956
  75.4012196  60.9426406  35.2812723  76.7499876  60.2834128  35.0883257
  36.2037897  70.7500179  51.0309479  35.4935604  70.8340389  50.3947509
  36.6800900  71.5779815  50.9689302  57.2228725  54.3303961  74.3888376
  56.6806588  53.6842487  74.8413082  57.2085865  55.0977506  74.9608469
  68.0520103  14.3108197  87.4906698  68.6102153  15.0358812  87.7716053
  67.7755160  13.8917262  88.3056198  19.9781754  65.9776478  64.1406042
  20.7271722  65.8020623  63.5710383  19.7008951  65.1134966  64.4448904
  71.8641910  49.3960983   3.4660752  71.7718891  50.3317980   3.2866922
  71.0082237  49.0254519   3.2511963  24.8258639  58.2102510  31.8117260
  24.7727634  57.9197427  32.7222298  25.7256576  58.5210070  31.7115574
  61.7278286  46.9040191  17.8054575  61.6999289  47.8553229  17.7031125
  60.9280186  46.5938781  17.3807832  62.8164075   6.2858388  17.6707430
  62.6194822   5.3963040  17.3771785  62.0963058   6.8157911  17.3289303
  52.3131456  11.3188091  74.5273939  51.3618678  11.4025549  74.4619030
  52.5091580  11.5228574  75.4418200  19.1177008  64.3006281   9.9524843
  19.6126429  63.6155835  10.4019039  19.7846784  64.9111766   9.6384727
  47.9746043  19.5262634  73.6945921  47.1695731  19.9483495  73.9945917
  47.9595582  19.6306016  72.7432146  73.7752060  13.6539988  15.1905191
  74.5530706  13.6280031  15.7477288  73.0857296  13.2574790  15.7230848
  77.3231315  61.0848433  82.6335670  77.5696789  60.6033616  81.8438698
  77.8916559  61.8549140  82.6318625  33.9569446  55.1496701  24.3996931
  34.0639298  55.3522585  25.3290714  33.0841717  54.7614614  24.3381032
  22.3621814  30.7943686  53.6592622  23.0263193  30.4736766  53.0490906
  21.5322429  30.4916651  53.2907455  51.0268726  68.7761567  78.5258256
  51.6024943  69.1324167  77.8490906  50.9952096  67.8370563  78.3432887
  50.3541502  24.9253650  39.1797379  50.0115876  25.1351274  38.3108981
  51.1025007  25.5118900  39.2901548  62.3009209  21.1795916  20.9849389
  62.8779917  21.9197446  21.1730733  62.7674724  20.6755588  20.3182211
  74.3539593  14.2943097  59.5270101  74.1631310  13.7019469  58.7997394
  73.5318081  14.3479619  60.0142685  63.6412696  38.1343490  59.1113027
  63.4406194  38.4110582  60.0053963  63.0452861  38.6448106  58.5631563
  67.4302377  37.4107628  71.8600351  66.6499356  37.9638854  71.8976625
  67.1117105  36.5326935  72.0692398  44.1125086  59.0786031  60.2946359
  43.2912818  59.5374904  60.1178852  44.7601011  59.5291317  59.7525291
  76.1709179  13.2047302  67.3080794  75.8239679  12.6299982  67.9903848
  75.3943778  13.5857389  66.8981407  34.9748998  66.0521094  16.0128361
  34.4692080  65.2701601  15.7913343  35.7561777  65.7157049  16.4517764
  33.4341001  25.1786277  19.1928988  32.9905101  25.3489298  18.3619614
  32.7294568  25.1561027  19.8403571   9.7781515  33.0616923  75.1061351
  10.6353207  33.4876523  75.1132680   9.2812440  33.5345891  74.4385399
   6.7395200  34.0655571  22.5947941   7.6057496  33.6949758  22.7637549
   6.1300802  33.3633779  22.8223009  79.8994342  44.4998639  28.2164993
  79.4123837  44.7107491  29.0130801  79.4498807  44.9858564  27.5251638
  53.4251248  59.8764263  15.6697913  53.0030179  60.6710574  15.3432657
  53.0244540  59.1680346  15.1659303   7.0727620  20.6719813  82.9653224
   7.4774450  21.4973008  83.2323639   7.6264364  20.3533628  82.2524699
  66.2488248  33.7731311  40.2098370  66.1776866  33.1619961  40.9431072
  65.6871553  34.5082895  40.4554003  10.8582351  64.1874132   3.4527961
  10.8099700  64.7378867   2.6712072  11.7816716  64.2084346   3.7039034
  13.8015352  44.4241893  37.0704278  14.0373542  43.5104941  37.2309964
  14.3106716  44.6708194  36.2982972  25.3425679  20.5242876  47.5135449
  25.4657196  20.2602349  48.4253243  24.7354977  19.8761103  47.1563841
  59.2816252  24.9883493  67.3565747  59.2608385  25.6188096  68.0765187
  59.3037105  24.1337460  67.7871525  82.1416191  16.1601749  78.4425455
  82.4422879  16.2039910  79.3502405  82.7209891  16.7572838  77.9692345
   1.7831047  57.9777964  18.4261244   2.6085020  57.9695717  18.9107722
   1.8839983  58.6888552  17.7933150  68.4575025  13.7255450  21.5258912
  68.3311023  13.4202449  20.6275334  68.7675616  12.9538133  21.9997323
  30.6239179   3.2568392  22.8539480  30.3437578   2.4355021  22.4500328
  30.4153334   3.9271285  22.2032280  18.5302771  24.9940008  15.9558710
  17.9399256  25.0408525  16.7078829  19.1787167  25.6793336  16.1173547
  20.4301305  46.9159148  83.2092783  20.7235106  47.0789807  82.3128580
  20.0057184  47.7318415  83.4745516  77.2460696  49.4907935  62.1553727
  76.6305231  49.9720852  62.7082674  78.0349352  49.4078881  62.6911429
  76.8543077  55.0212383  78.9910840  76.2160358  54.9031868  79.6945786
  77.1614629  55.9218428  79.0950018  79.6915453  67.0602952  36.5368112
  79.2931794  67.4986814  37.2887115  78.9521222  66.8308343  35.9739319
  48.4825936   4.8629182  17.3647143  49.2742883   5.3645376  17.1702166
  48.2544506   5.1130998  18.2600309  13.7522800  43.0568904  81.8305872
  13.5010244  42.1386578  81.9303434  14.1387494  43.2924474  82.6740243
   3.4070623  50.1620687  43.2586795   3.2398677  50.2939684  42.3254698
   4.1822731  49.6012452  43.2861944  13.4107656   7.6042353   3.6387655
  13.9245514   8.4098400   3.5816942  14.0638944   6.9049790   3.6651320
  74.8380754  26.9729466  20.7566612  75.3478813  27.4679191  20.1153095
  74.7557248  27.5641559  21.5049404  72.5369151  18.4686833  68.9961833
  73.1140053  17.7376565  68.7752797  71.9177867  18.1026767  69.6278091
  47.5426686  62.7115832  19.3562777  48.3968325  62.6695552  19.7862422
  47.6525219  62.1998914  18.5548193  66.6503502  61.0131387  40.7928620
  65.7902493  61.3466558  41.0482532  67.1711929  61.0547867  41.5948721
  56.0306736  24.0391358  39.8798658  55.2426011  23.7981734  39.3929257
  56.6883386  24.2047142  39.2043716  42.5233350  56.6797470  37.3885123
  41.9531529  56.0752565  36.9134171  43.1286742  56.1126148  37.8661705
  48.8799624   3.3862892  15.2347703  49.5836975   3.8366000  14.7676420
  48.8107839   3.8506128  16.0689464  11.0589108  13.1851061  78.4691523
  11.9396732  13.1645866  78.8434093  11.1945091  13.0562904  77.5304023
  39.0743547  61.9158438   1.6781827  38.6664675  61.2776854   2.2635148
  39.7638445  62.3185728   2.2060510  55.0434017  67.8335507  68.7490289
  55.9777755  67.9519969  68.9197570  54.6720008  67.6011247  69.6000703
  46.3345539  59.5292787  84.5845409  46.6228591  59.1986488  85.4353028
  45.5047861  59.9699965  84.7675300  58.8924593  47.7911003  85.5007916
  58.2799832  48.3830425  85.0640888  59.2072608  47.2153801  84.8038855
  38.4485960  66.8132597  21.6937974  38.4893209  67.7679148  21.7504276
  39.3638365  66.5332775  21.7070895  16.0202341  44.7837125  39.2236291
  15.3207157  44.3171733  38.7661939  16.4409693  44.1147377  39.7637092
  39.7736772  17.6408321  88.0882683  38.9782376  17.2174172  87.7654257
  40.3116363  16.9207406  88.4173582   3.3365854  29.5722629  84.9436092
   2.4239253  29.6483134  84.6652214   3.6143747  28.7145266  84.6221231
  12.6993382  65.0016191  13.1341079  12.1453008  65.4258727  12.4789108
  12.3193167  64.1295795  13.2407031  10.0128248  44.5449277  73.9477638
   9.2478155  44.1942681  73.4916601   9.9736945  44.1507010  74.8191339
  68.0585832  13.9494202  76.0214899  67.1727149  14.2734966  76.1841049
  67.9440468  13.0145512  75.8508054   6.1461748  46.5679399  60.3499253
   5.2652976  46.2001925  60.2788692   6.0091401  47.4557257  60.6805153
  22.9738478   2.5862867  20.9105577  22.2501461   2.3864522  21.5043202
  23.2963581   1.7300472  20.6293584   1.2200858  69.3826170  55.1146374
   1.8335761  69.5247878  55.8355042   1.2504083  70.1956958  54.6104398
  48.8599091  43.6743227  12.3227179  49.3522720  44.3888313  12.7268071
  49.5314216  43.0763435  11.9945052  62.7783949   4.9995723  84.8507782
  62.0132306   5.2243264  84.3214003  62.4465119   4.9625420  85.7478368
  69.2337293  27.9904685  26.6942800  69.9211977  28.4326376  27.1923819
  68.4316190  28.1641036  27.1869277  76.2537226  65.8950970  10.0633432
  75.7393221  66.5345274  10.5560427  76.8479629  66.4244405   9.5314543
  39.2259223  51.7776446  56.8648639  39.1122298  51.5272147  57.7817012
  38.3431597  51.7444439  56.4962723  11.5174916  39.8004820  56.2260281
  12.2013478  39.7856137  55.5564376  11.6157293  38.9674989  56.6872444
   6.1415872   6.8991512  56.5009671   5.2296682   6.6092038  56.5247596
   6.2503242   7.2762163  55.6279093  44.2536745   8.5670718  56.5441894
  43.4520534   8.1936803  56.1778369  44.8998193   8.4816938  55.8431620
  44.4383178  48.0654553  37.4170535  43.6854250  48.1298089  36.8294797
  44.9717792  48.8321372  37.2076504   1.6838344  22.7268263  53.2510965
   2.3772061  23.1663672  53.7433072   1.4760869  21.9505578  53.7711734
  38.1932773  39.0482831  17.1203520  37.9229095  39.6460971  17.8173107
  37.6482767  38.2715234  17.2462512   0.2400426  18.9052417  32.7430422
   0.3163047  19.5679170  32.0565457   0.3562915  18.0723298  32.2859034
  26.8466673  68.0189566  41.0157494  26.6022899  67.6843576  41.8786254
  27.5375035  68.6572941  41.1932387  39.7246064  58.0556155  79.7087855
  38.9618147  57.5128771  79.5092470  39.8614477  57.9400085  80.6490734
  14.7166343  47.0403940  52.3272571  14.9251528  47.4759731  51.5008052
  14.1302514  47.6485789  52.7772549  50.8055540  17.6966247  83.8068694
  51.1192831  18.4581257  84.2946420  50.3704712  18.0667837  83.0388087
  78.7782942  23.7261249   5.9868272  78.0694294  23.8661987   5.3590359
  79.0409645  24.6075305   6.2520823  78.3832775   1.5158033  76.3175791
  77.9267523   1.7576369  77.1233912  79.0942361   0.9441681  76.6074115
  40.5609052  64.9024306  31.3431849  41.4497539  64.6122993  31.5481329
  40.3600015  64.4853239  30.5053952  28.9786547  13.7710269  73.0395736
  29.8016755  14.2494971  72.9398994  29.2283205  12.9512663  73.4660609
  84.3978852  31.1399177   2.7190318  83.7256553  31.2470180   2.0460769
  84.3381861  31.9366720   3.2461470  50.5267483  36.8464034  77.9202229
  50.0388131  37.6534439  77.7564038  49.8700137  36.2316808  78.2474043
  58.5545595  17.8392725  37.4404910  58.8896756  17.7997417  38.3362400
  57.6274370  18.0551154  37.5409270  57.7684503  42.5359913  42.5000345
  57.7667669  42.9816784  41.6529264  56.9187476  42.0972244  42.5415147
  57.2510321  45.7038699  71.2334669  57.6542931  46.4948985  71.5910787
  57.0763895  45.9174468  70.3168881  65.0401770  17.1185977   5.9601323
  64.7255099  17.4712154   6.7925247  65.8564284  16.6709972   6.1828862
  39.4988230  42.3921447  85.8305604  38.5716824  42.1621036  85.7695414
  39.8584344  41.7713269  86.4641981  67.7103707  57.0758200   9.3720855
  68.5418696  56.6577405   9.5958063  67.3140560  56.4905675   8.7266043
   3.3465966  22.3798135  64.0811601   3.5023570  22.9339938  64.8459181
   3.8364216  22.8021909  63.3755393  56.4944699  56.4279557  41.6715924
  55.7012453  56.9347288  41.8453964  56.3272502  56.0021962  40.8307605
  69.9136590  17.5107338  27.4866850  69.4345508  16.7106027  27.2710987
  69.4356704  18.2054909  27.0338371  30.7205919  69.0256729   0.4094174
  31.0073436  68.3656977  -0.2218020  30.2837553  69.6913731  -0.1218537
  60.1781319  61.4463197  80.7021735  59.8967045  61.2856086  81.6028412
  59.8846762  60.6743877  80.2181935  42.6503401  68.2773502  27.6479945
  42.8788442  67.3660956  27.8313867  41.9306550  68.2219518  27.0193323
  49.0792192  53.3770338   9.8223233  49.5707441  52.8863644   9.1636285
  49.5613612  53.2339347  10.6367517   9.9955462   4.5971945  58.8280211
  10.7227237   4.9915726  59.3095922   9.4195166   5.3326683  58.6194545
  73.1706973  56.3652358   5.4124115  73.0714469  57.3070642   5.2733415
  72.5221908  55.9676774   4.8313620  31.5978830  70.9062255  70.7625207
  31.5342226  71.3369885  69.9100991  30.7951744  71.1584603  71.2188850
   9.6612224  32.0508672  52.4154811   9.2506257  32.7853156  51.9591614
   9.4984232  31.2961570  51.8496712  62.4942177  53.2537538  58.9051176
  62.5884422  52.3803493  58.5249620  62.4556077  53.1011252  59.8492815
  42.1837977   2.3438220   8.8842130  41.9634324   1.7081057   8.2033785
  42.0888359   3.1950498   8.4568662   0.6949136  40.9207596  56.9762794
   0.1351130  40.4958762  56.3264108   0.0844221  41.2798945  57.6201382
  79.2946052   3.3582859  57.0152260  79.7320574   3.3408617  57.8664391
  78.8745931   2.5010948  56.9441965  31.6437757  32.7733630  81.6107112
  32.4865024  33.1935227  81.7824941  31.4905202  32.2215292  82.3776689
  46.7878574  53.5883850  15.9910692  46.6800816  53.2781977  15.0919585
  46.2956098  54.4087292  16.0220472  71.1224659   4.4603155  47.2483785
  70.6571623   5.2718174  47.4513293  71.9965759   4.5867103  47.6174149
  72.4566435  66.2567479  81.0564568  72.7009569  66.0385604  80.1570475
  73.0310454  66.9857916  81.2905287  48.7958348  38.6564335  41.1197136
  49.1768846  39.4181304  40.6828490  48.0013063  38.4667401  40.6207419
  22.6673526  41.6324466   5.7986404  23.3015945  41.5858085   5.0832426
  22.4483563  42.5619377   5.8643581  57.2739591  21.8282619  78.0285767
  57.3829538  22.6478455  77.5462544  57.0518281  21.1830433  77.3573222
  18.8133303  17.6141500   1.8330345  18.3949673  17.7254337   0.9793249
  19.5026869  18.2780184   1.8502969   0.1036008  46.2003125   8.8028148
   0.0842162  47.1470722   8.6631644   0.3574706  45.8381431   7.9539242
  56.4122030  43.1534848  51.1118637  55.7880206  43.4916814  50.4697958
  56.9638845  42.5496790  50.6145731   6.5472134  23.8243165  68.1280625
   6.1672405  24.4722198  67.5347044   5.8303381  23.5897538  68.7173859
  71.1339647   2.7339737  11.5085471  70.3870726   3.1564881  11.0844414
  71.8911957   3.2473848  11.2270473  44.2981020  71.4171907  31.8247092
  44.3027420  71.4603489  32.7809244  43.3719226  71.3501983  31.5924687
  57.0058206  48.2281843  58.6103008  57.3252022  48.4422466  57.7337139
  56.4946971  48.9938176  58.8725799  14.8585697  37.0558746   7.2494216
  15.6914177  36.6263921   7.4447187  14.8796835  37.8638254   7.7622583
  74.1044540  33.4892516  51.9806518  73.8000817  33.8941364  51.1684587
  74.9386208  33.0819134  51.7472569  60.9190126  25.4037398  78.0345576
  61.3068941  24.5496645  78.2251758  60.6358575  25.7338818  78.8872365
  77.1441099   6.7344948  60.2760617  76.7234123   6.2542357  59.5629020
  77.8918885   7.1678124  59.8646072   5.5400012   8.8899418  70.4067857
   5.5133477   8.5113074  69.5280608   6.3685222   9.3683850  70.4363997
  38.5715368  45.0906977  16.0043525  38.1742191  44.6081588  15.2794203
  39.0695530  45.7904861  15.5818507  68.1119187  28.0572975  53.4813724
  68.6751334  28.4851427  54.1263293  67.8654153  27.2281388  53.8912063
  65.8581902  32.9064143  26.5611426  65.1190103  32.3431648  26.7904784
  66.2174376  32.5173299  25.7637804  33.7407617   8.2078017  19.2334308
  34.5248142   8.0060549  19.7441085  33.9496713   9.0289755  18.7881644
  63.0572671  13.0492124  16.4338226  62.1095840  12.9284629  16.3742556
  63.2715083  13.6275398  15.7017912  52.9866141  57.3894097  58.3836036
  53.1046724  57.9311972  59.1638345  52.4497338  56.6548909  58.6810485
  81.3458699  53.9122875  36.9546983  81.0796041  53.1677828  36.4152105
  81.4761613  53.5412523  37.8273889  32.7742318  31.7261102  84.1112646
  32.8053957  32.5462306  84.6038731  31.9102847  31.3626884  84.3055628
  66.9031057   6.5759157  32.7347175  66.2144362   5.9120942  32.6985642
  67.0837923   6.6829696  33.6685932  76.1058295  37.9911513  86.7057630
  75.8760325  38.9149204  86.8061416  76.3971861  37.7208282  87.5765492
  66.6731120  13.8108426  13.1778421  66.2577310  12.9739966  13.3861190
  67.5824382  13.7028128  13.4565665  52.7994660  21.6439099  34.9568580
  51.9440667  21.2366119  34.8203581  53.2384693  21.0733777  35.5877312
  59.2087942  15.8141369   8.1212814  60.1062224  16.1449495   8.1589305
  59.2262664  15.0139638   8.6463047  86.6506724  23.7845177  45.0643132
  86.1682691  24.1931709  45.7830075  86.0407593  23.1424501  44.7010130
  57.2778897  22.2298986  27.2104609  57.5309706  21.3740259  26.8645363
  58.1054335  22.6425383  27.4577091  56.6295562  34.9282318  42.1349380
  57.0244951  34.4633501  42.8725966  55.7536170  34.5506152  42.0551379
  42.7594554  69.3685144  13.6622231  43.4193319  68.6836329  13.7705380
  42.0269803  68.9291904  13.2301276  83.0278043   6.4588029  25.3233685
  82.1991554   6.7423822  24.9371618  83.3132068   7.2040956  25.8518722
  82.1637894  68.1628222  60.6677249  82.9763816  68.5927740  60.9343094
  81.8376810  67.7500848  61.4674330  57.1313666  26.1053300  56.0759846
  56.9987258  27.0528267  56.1057872  57.4609669  25.9372743  55.1931750
  69.6586015  21.1265036  42.9062513  69.7763660  21.8719909  42.3175137
  69.0133276  21.4264958  43.5464528  39.1517864  42.8820133  46.8708907
  38.4965863  43.4844630  47.2230255  38.8772367  42.0200369  47.1837023
  50.3279330  68.1212326   6.0637603  50.8603574  67.3387001   5.9209349
  50.2398315  68.1806369   7.0150442   7.3613383  13.9757004  77.1212085
   8.2626104  14.2832436  77.0244740   6.9330803  14.6508288  77.6475436
  13.5864369  38.3761796  82.8908559  13.3939759  38.8432121  82.0777930
  12.7301119  38.2357266  83.2948514  72.3653244  70.1697067  36.5918252
  71.4381635  70.0338738  36.3964949  72.5317604  69.6201606  37.3576776
  72.9035876  68.7897167  51.6380239  73.4434576  68.8802679  50.8528025
  73.4451299  68.2839993  52.2440055  53.2041423  26.4458540  17.5849542
  53.2634137  25.4949628  17.6772824  52.6164340  26.5780943  16.8410837
  58.4541206  20.0593691  26.2496024  59.0713069  19.4309397  26.6242881
  58.0278478  19.5813941  25.5382212  38.1551265  53.0805541  54.1587497
  39.0945268  52.8994385  54.1278294  37.8071492  52.4362652  54.7752198
   1.0811331  36.0138046  67.7143046   0.9854735  36.0119317  66.7618984
   1.1042921  36.9410215  67.9508724  54.1665334  19.7196561   0.8164527
  53.2157032  19.7991830   0.7401040  54.3232018  18.7780275   0.8873220
  34.8890568  47.3596747  36.7268293  34.0363666  47.7252977  36.4913063
  35.3750516  47.3350749  35.9025504  48.0968727  38.4266015  59.4232853
  47.4400951  37.9620321  59.9419858  48.6529770  37.7344965  59.0655555
  21.4653829  66.8264253  49.7658177  21.5856504  66.1225039  49.1284307
  22.1005749  66.6356768  50.4560192  12.9670519  49.0110993   7.9054635
  12.1432370  48.8671357   8.3711194  12.8802144  48.4992873   7.1012624
  67.9775423  17.9745071   0.9689576  67.6623923  17.1508218   1.3410528
  67.1845766  18.4905304   0.8235028  37.1024822  46.3962088  47.4128092
  36.9448261  45.5168514  47.0691422  37.7300689  46.7830115  46.8022763
  60.8537720  48.7960017  43.6347028  61.3814335  49.0512353  44.3914464
  60.3986421  48.0025538  43.9167117  70.2393973  44.4907219  45.4780566
  69.8515309  44.6302680  46.3419538  69.5729665  44.0051795  44.9918977
  20.9263337   0.3138636  19.2735611  20.5967299   1.2086321  19.1900001
  20.4547276  -0.1788072  18.6019250  60.7104466   0.8591338   4.4668618
  59.8621118   0.7711639   4.9013975  61.2875892   1.2210664   5.1392775
  73.5455247  62.5170010  65.6178269  72.9964646  61.9943354  65.0333737
  74.2256538  61.9114360  65.9126952  46.1259732   3.9326602  86.5426244
  46.2489798   3.1930533  85.9475757  45.2421204   4.2477588  86.3535504
  79.8010616  59.2427899  31.1827151  80.5216919  59.8714841  31.2235493
  79.0197518  59.7817329  31.0589118  59.7310294  16.4794874  18.3469481
  59.8147446  16.1734372  19.2500300  59.1584035  17.2442883  18.4053529
  51.4818332   0.8585652  20.9776249  52.0109317   1.4522038  20.4448212
  50.6226699   1.2781822  21.0222555  71.5563057  41.9808033   4.6935515
  71.6860705  41.0342077   4.6356743  72.4397337  42.3467483   4.6502961
  54.7443788  60.2747930  73.8305775  55.2699353  61.0745368  73.8097944
  55.1245506  59.7567296  74.5400221  81.1502050  25.5647005  70.7263225
  80.7151728  24.7556061  70.9952927  80.7350196  26.2467693  71.2541815
  64.9957404  38.8137269  72.7541471  65.0210452  39.6653311  73.1904519
  65.0816424  38.1779931  73.4645661  13.1017078  44.9715441  20.1015399
  13.5316076  44.9100314  20.9545547  13.6523041  45.5716158  19.5985593
  53.0406437  66.4668513  73.5356703  52.6249723  65.6082222  73.6144437
  53.1594028  66.7592721  74.4393396  53.5446931   7.8197647  59.4517300
  53.5683181   7.4868222  60.3488493  53.0472360   8.6353267  59.5119528
  57.7771919  32.6636659  62.6417127  57.6874375  33.5454713  62.2803332
  58.4160291  32.7582452  63.3482350  11.3595273   2.6236465  17.3327646
  11.2878021   2.1965892  18.1864093  11.9010684   3.3958597  17.4960184
   6.9198334  38.6923187  81.7202879   7.5142612  37.9465232  81.8019969
   6.1985887  38.4901561  82.3162478  40.9711254  41.5242397  59.9842022
  40.2927380  41.2400542  59.3716167  40.6432273  41.2604748  60.8439363
  48.5044570  66.6103481  56.5735509  47.5953223  66.3451878  56.7128201
  49.0184923  65.9727457  57.0689928  65.6609034  70.5438768  86.1714390
  66.1519465  71.1866967  86.6831920  65.4703212  70.9898076  85.3461779
  64.0428767  20.2979122  13.1510758  64.5344796  20.9437396  13.6584863
  64.3036591  20.4571233  12.2439506  22.6860704  59.2056914  47.4220132
  23.6102595  59.4130005  47.2837045  22.5122381  59.4762408  48.3235769
  56.0071857  46.0823614  17.0920857  55.6915905  45.5085798  16.3939408
  56.1684256  46.9204888  16.6587544  -0.2525399  68.5501416  51.8296084
   0.3736085  68.9906185  51.2550215   0.2619588  67.8746315  52.2714330
   5.2321010  -0.0205215  66.1808404   5.7322213   0.1634963  66.9759812
   5.1898760   0.8198800  65.7245792  15.0656676  39.2153028  76.5192762
  14.7376781  40.0081039  76.9436831  16.0131156  39.3432393  76.4723028
  42.2110761  43.1447750  24.3123055  41.4705137  43.2659839  23.7180769
  42.6321205  42.3403248  24.0092983  72.7847261  67.5079229   2.4263300
  73.6550730  67.7109499   2.7691245  72.9480762  67.1556561   1.5514262
  55.2725833  53.8974489  25.6918709  56.1106380  54.1176850  25.2851866
  55.5103696  53.4855926  26.5225717  81.7092369  57.7161257  41.7630095
  82.0271694  56.8612533  41.4725891  81.3705108  57.5589163  42.6443616
  13.7558636  27.2871906  72.8466005  14.2684559  28.0019148  72.4689097
  14.3645222  26.8410737  73.4354521  59.0325155  41.2783825  68.9432264
  59.5471773  42.0409619  68.6789769  59.0156998  41.3204114  69.8993553
  39.5712129  49.2100804  20.7508083  39.0512372  48.8335876  21.4608156
  39.3911022  48.6474458  19.9976587  18.3930382  59.6621671   6.6997132
  17.4884901  59.8810915   6.4758905  18.8302343  60.5093309   6.7857660
  29.9342608  35.7012686   7.7118841  29.2873292  35.7718634   7.0099385
  30.0394916  36.5973290   8.0316249  33.4868471  45.4668928  69.2550390
  33.8856223  46.0938684  69.8584558  34.1406030  45.3486220  68.5659476
  64.8653427  16.0552568  40.1629343  64.4918248  15.4671066  39.5065841
  64.1152650  16.5449922  40.5002391  10.1879181  40.5196116  87.6890845
   9.5498799  41.0936131  87.2652196  11.0380073  40.8538390  87.4029516
  15.3964368  10.6253425  62.5891300  16.2550003  11.0168699  62.4284849
  15.2632685  10.0293720  61.8520295  23.9178077  15.3271399   4.4224751
  23.2622147  15.9994962   4.6078576  24.6076624  15.4808274   5.0680078
  22.8188190  60.8822557  55.8313508  23.6628702  60.4865182  55.6140922
  22.2913193  60.7707045  55.0404447  61.4845982  22.8122196  67.1892237
  61.8828300  21.9498006  67.0714244  60.6043202  22.6268958  67.5163284
  27.4135733  20.6260979  16.2114975  27.0062054  19.7814167  16.4033229
  27.9620587  20.8063781  16.9749729  60.2858589  36.9078115  61.2071573
  60.4353681  37.5484845  60.5118753  59.9800735  36.1246806  60.7495186
  17.4660522  40.3649110  87.8183188  17.5615379  39.6173436  88.4084520
  18.1350965  40.9853611  88.1075475  72.7674341  10.3351444  54.9073982
  73.3899807   9.8905488  55.4827262  73.3154093  10.8329960  54.3006867
  78.2310966  31.1293252  14.3310901  78.4303223  31.3221503  13.4149245
  79.0827343  31.1363700  14.7680059  64.5786309  68.7739040  46.1820525
  64.9719611  69.5550942  45.7931242  65.3164423  68.3000163  46.5658449
  56.0588319  35.4793261  37.7804168  55.3104216  35.3127234  38.3534416
  56.8166811  35.1812970  38.2834824  72.5546990  37.0305909  28.4183133
  73.3840653  37.3556973  28.0680431  72.7825203  36.6653239  29.2732456
  56.5621673  28.8856311  59.4936592  56.5832643  28.8385008  58.5378530
  57.2345291  29.5294100  59.7166165  73.2023709  45.5749845   5.4953319
  73.1544187  46.4992872   5.7394570  73.2562494  45.1093215   6.3298898
  55.8528544  15.0734648  61.7314967  54.8997840  15.1600518  61.7117131
  56.1162350  15.1147192  60.8121705  17.3769452   3.0438191  57.5659031
  17.5976653   3.2646045  58.4707613  18.0882820   3.4197034  57.0473061
  50.9452866  65.7572410  35.7340173  50.3366238  66.0012709  36.4313056
  50.5432978  66.0981730  34.9350166  20.2887020  34.8262196  63.1857063
  19.7663221  34.8320448  62.3836357  21.0808557  35.3134579  62.9591598
  22.8941642  49.7926851  11.0919637  22.1209061  49.7814283  11.6560355
  23.5050443  49.1863923  11.5108509  32.9133438  17.0351646   2.1726991
  32.1694467  16.4605925   1.9918242  33.6742322  16.4546808   2.1548288
  32.5838391  48.8015980  39.0493615  33.0464945  47.9664884  38.9802687
  33.0927827  49.4030547  38.5058010  80.3038216   1.6610021  82.7631955
  80.4073706   1.0109155  82.0682877  80.8087454   1.3099836  83.4967279
  82.1677019  15.4416563  22.9320793  82.9685434  15.0160000  22.6259723
  81.7345593  15.7403727  22.1324620  77.1234347  20.2372425  42.8321851
  77.4284093  21.0451784  43.2450554  76.2334693  20.1196526  43.1643992
  67.0018004  35.5722196  37.1884285  66.2600250  34.9911511  37.0200227
  67.6522799  35.0132137  37.6134235  42.9423780  66.7450384  11.8113055
  42.2564729  66.4329392  12.4015259  42.8656733  66.1859935  11.0381192
  21.4428423  57.9922408  34.2464404  21.4819154  57.0929834  34.5720801
  20.7476233  57.9787691  33.5886251  37.8856370  34.0517756  81.2856768
  37.4413947  33.6039277  82.0056163  38.3136143  34.8021073  81.6980718
   9.5906750  58.0560771  69.3644572  10.1877659  57.4977928  69.8624863
   9.3430919  58.7485345  69.9771866  65.4114694  36.1694564  29.6895318
  64.8334559  36.5598911  29.0340221  66.2319532  36.6551589  29.6050861
  28.3169157  12.1612991  84.6412043  28.6275894  12.6030678  85.4314916
  27.4287440  11.8781809  84.8585224  19.5431096  55.6618424  41.7818052
  19.5529743  56.3899244  41.1604912  20.4203962  55.6618100  42.1646892
  45.1278348  61.5749066  64.8838653  45.4785093  60.9502279  64.2490143
  44.6226868  62.1939863  64.3568001  19.8652624  18.3326253  50.4551609
  19.0890771  18.6582584  49.9993853  20.4859818  18.1289291  49.7555560
  28.7459985  67.8700988  17.3502811  29.0782882  68.1481960  16.4967723
  28.7899221  66.9142534  17.3245498  57.0356625  15.2506949  26.6102896
  56.2298126  15.1557028  26.1025355  57.3215380  14.3523667  26.7761611
  24.7627173  60.9504772  16.8476103  25.0729495  61.8445099  16.9914622
  23.8104961  61.0123407  16.9229732  55.6609642  48.3897396  64.8780653
  56.5403445  48.0966751  65.1168860  55.5992053  48.2206056  63.9379529
   0.5756001  35.0212056  62.9950757   1.3720546  34.6552113  62.6104457
  -0.0456565  35.0598667  62.2679049  16.8600443  63.9778638  59.1803625
  17.3217020  64.3171681  59.9471588  17.5539377  63.6471296  58.6099602
  80.6861394   0.4083746  60.6288507  80.6815173   0.2717791  61.5762430
  81.6026174   0.5854664  60.4168640  69.6180806   0.5695315  78.1427071
  68.7374444   0.4865672  77.7768812  69.9154641  -0.3329419  78.2581913
  49.2794089  25.9047982  36.5918208  48.8051022  25.4413474  35.9015467
  48.6842624  26.6033883  36.8638583  84.1441145  33.0584427  20.9697987
  84.8861754  33.6596965  21.0336059  84.3991727  32.3057332  21.5032830
  48.9463452  52.6184349  85.6246184  49.4359491  52.7971073  86.4274858
  48.1150608  53.0777821  85.7437748  40.5233770  51.1593185   4.1470352
  41.3139230  51.6936140   4.0708964  40.8391680  50.3048811   4.4410497
  29.8444336  69.1682128  23.4102707  30.7576390  69.2538455  23.1364922
  29.6761295  68.2261103  23.3916049  33.7403860  52.5173597  68.0351507
  32.9732534  52.8216492  68.5200705  33.8398692  53.1493555  67.3231702
  66.7944131  16.9826183  12.5819387  66.0661022  17.1502678  13.1800095
  67.5690640  16.9747539  13.1441539  63.8409487  11.7190855  52.6322901
  63.4963045  11.6389178  53.5216862  64.4036516  12.4928400  52.6623125
  16.3675736  69.8522358  65.4523435  15.4981458  69.7181168  65.8296224
  16.7124554  68.9684163  65.3252550  23.6771186  69.8466240  59.6692096
  23.4008813  69.7061028  60.5748467  23.3629039  69.0735792  59.2002717
  77.3600080  70.4518245  88.5992571  77.3903518  71.3687358  88.3261550
  78.2488224  70.1284979  88.4519454  44.3951115  42.7560261  85.9210158
  43.5597035  42.9528713  85.4972503  44.9677919  43.4806514  85.6696452
  75.6355875  30.8606606  77.8498229  75.2145109  30.5237963  78.6406761
  75.3233618  30.2875808  77.1495897  47.0385511  48.9344940   6.1529203
  46.3497849  48.7313972   6.7858380  46.8627614  48.3533604   5.4129111
  44.1564981   7.4731711  72.6002633  45.0443386   7.8160202  72.7023689
  43.6511454   8.2132853  72.2639877  30.0279550  53.4449741  38.0353296
  30.2116391  54.3345195  37.7333346  30.2154555  53.4671080  38.9737247
  69.1368548  67.0293632   7.0214197  69.3182303  67.9140406   6.7041176
  69.8059423  66.8719729   7.6875894  85.2975208  56.9545207  30.0510935
  84.4879498  56.8218134  30.5442622  85.2291935  56.3506534  29.3115615
  64.9184106  10.4726287  50.2349123  65.1229048   9.5682049  50.4724656
  64.4444372  10.8176881  50.9915596  73.6325849  71.9117000   7.4235414
  74.1610531  71.1145466   7.3848147  72.7719920  71.6144251   7.7189044
  53.7996819   6.4577224   8.6347796  53.3628192   7.3056651   8.7146295
  54.2783961   6.5118740   7.8076568  26.6625404  51.3856320  74.4328846
  27.0957702  50.5775350  74.7076992  27.1881101  51.7010802  73.6976970
  45.3912922  62.9155217  79.2007544  46.2890560  62.5886937  79.1421404
  45.4864382  63.8315743  79.4615736  47.6796904  66.3443544  17.3808568
  46.8192817  66.3542944  17.8001777  47.8313618  67.2538238  17.1237712
  16.6657430   9.2666614  28.9894338  17.4286954   8.9023871  28.5406135
  16.8360310  10.2078905  29.0257884  61.2273969   3.6880553  59.5509055
  61.8914117   3.0880522  59.2113287  61.0538748   3.3755707  60.4388668
  84.0343618   5.8912429  62.2512289  83.9312937   6.5538120  61.5681397
  84.5157831   5.1816191  61.8259062  47.2463901  14.5017718  15.4825049
  48.1250852  14.6607447  15.8272575  47.3490080  13.7456201  14.9046329
  56.7022885  34.5526297  70.9648829  56.2171130  35.0945604  71.5870948
  56.5391644  34.9601642  70.1142725  16.7762910  22.5548470  87.1949099
  17.1767554  22.7672123  88.0379764  16.6912476  23.3985345  86.7508480
  73.4139065  11.5739907  65.7189381  73.1615843  11.5645523  66.6422345
  73.8076088  12.4364484  65.5870405  84.5235930  21.9311418  49.6901950
  84.4818787  22.5733051  50.3987979  85.4308749  21.9673283  49.3872727
  56.4909856  17.5543194   6.0880409  55.8199565  17.7850588   5.4456149
  57.3192307  17.6803470   5.6250517  36.5551718  58.3061736  29.1585744
  36.4987122  59.2344921  29.3850007  37.4738879  58.0797885  29.3032889
  79.9999322  33.3576073  22.1043238  79.9391315  32.8536578  21.2928005
  79.6451021  34.2176670  21.8793245  84.9649596  25.9629980  62.6812938
  84.8941640  25.0096849  62.7304256  84.7282640  26.1745237  61.7782634
  31.5348790  37.3966919   5.6978963  31.9483300  36.6148996   6.0640807
  31.5142017  37.2370487   4.7543295  45.1040537  40.4961211  31.4363395
  45.6802159  40.6545564  32.1841144  45.5868747  40.8401630  30.6848404
  12.1473258  40.1091834  36.2939956  11.3364048  39.9749638  35.8034613
  12.7187298  39.3948075  36.0122220  46.8510116  50.6012536  22.9574912
  46.4313182  50.7138405  22.1046058  46.7117037  49.6791207  23.1731205
  58.0689550  46.0159611  56.2187893  57.4543411  45.9317760  55.4898213
  57.5262858  46.2858780  56.9596582  82.9299598  15.1132342   2.4949803
  82.3179631  15.7163150   2.0730970  83.7004824  15.6482510   2.6854635
  25.2716563  50.1977076  62.6972818  24.8087699  50.1475812  61.8609473
  24.7171378  49.7114733  63.3074598  78.0609511  26.7644189  74.3281184
  78.0259662  27.4315934  75.0136008  78.6425235  27.1339416  73.6636950
  44.7421599  70.4100049  71.7508610  44.8295893  70.8368542  72.6031448
  43.8713354  70.0131031  71.7699769  30.8042118   2.6587699  78.6881968
  30.5603702   2.5403279  79.6062081  30.6443977   3.5866410  78.5157250
  33.5758298   2.1196796   8.9637331  33.4669275   2.7998167   9.6284026
  34.4571694   1.7775008   9.1133529  68.1612600  39.1915690  67.8473317
  68.6540412  39.0654183  68.6581859  68.5169244  39.9979713  67.4739018
  84.2193349   1.8792693  39.8337794  84.1851122   0.9276888  39.9315304
  84.3126111   2.0200550  38.8915953  75.2627757   9.3732602  39.4241141
  75.8608551   8.6394162  39.5655564  75.4657066   9.6807812  38.5406653
  70.4926034  56.5908285   6.9213337  71.2234682  57.1878176   7.0815600
  70.1827747  56.8211877   6.0454498  77.1890712  48.6613802  54.0108484
  78.0171150  49.0153686  54.3352978  76.5870116  48.7442487  54.7503677
   6.7291202  37.4668183  63.1305312   6.0015128  36.8457411  63.0976315
   6.3713235  38.2311981  63.5821248  65.2001375  14.9363009  55.5244755
  65.0172972  14.1001124  55.9529495  66.1497892  15.0365753  55.5903425
  44.7257358  37.7436392  58.8265657  44.3896289  36.8529584  58.7268077
  45.4727593  37.6528855  59.4181327  49.7990737   6.1876020  43.8820694
  49.6588250   6.2146658  44.8285522  50.5898131   5.6595174  43.7721165
  57.8793681  40.9427418  78.6771124  58.2137466  41.7755048  79.0101718
  57.0580752  40.8081018  79.1499568  37.3028558  21.8437271  68.3280645
  38.2186499  21.6145762  68.4863143  37.3418311  22.6820430  67.8676959
  54.7443680  42.2266858  70.9605625  54.6247256  41.3634232  71.3564101
  53.8558979  42.5665386  70.8540135  15.7417358  45.4477337  87.7140346
  16.1122884  44.6677495  87.3010609  16.4575000  45.8025244  88.2413267
  22.3443727   2.5588794  76.2794155  22.0551847   2.3851476  77.1751942
  22.8002728   3.3987934  76.3335583   5.6835546   3.7083917  28.6457040
   6.4956519   3.5327298  28.1704434   5.4571789   2.8711673  29.0507238
  62.7073326  52.6983501  20.2137305  62.6525637  52.0428520  19.5183497
  63.6235110  52.6782424  20.4902167   6.3925458  36.4746858  35.1644117
   6.4743718  35.6773394  34.6411767   6.2705459  37.1722848  34.5204369
   0.9696679   3.0845606  45.2152240   1.4807145   3.5928014  44.5853393
   0.2034461   3.6288120  45.3966800  48.1101549  26.4313473  44.8091469
  48.1871100  25.4889498  44.9581322  47.3520709  26.5214299  44.2317167
  85.2882096  70.5144341  57.6993417  85.8235819  69.7371552  57.5398242
  84.7010817  70.5598536  56.9447227  72.7470959  50.2667589  39.7542502
  73.0708268  50.6128036  38.9225752  72.9223017  49.3269144  39.7070586
  84.7683414   7.7634977  41.1945089  84.8084751   8.5720654  41.7052332
  85.3516981   7.9200448  40.4519325  38.8581952  59.6066134  15.1109657
  39.3018725  58.8173875  14.8003136  39.3937078  59.9095162  15.8442514
  47.4508581  55.5171616  74.3725513  47.3270260  55.7522708  73.4529747
  48.0194446  54.7475100  74.3485176  18.8128734  65.0912404  85.1777546
  19.5951562  65.6283572  85.3033376  18.1444216  65.5114469  85.7188929
  21.6919200  70.3527687  15.1012607  22.3798424  70.9875015  14.9009890
  22.1364302  69.5051688  15.0865292  58.8859933  10.6926326   3.8319695
  58.8288584  11.6480586   3.8433117  59.7796301  10.5027253   4.1175922
  67.3953480  56.6317788  13.1353857  66.6132610  56.0800282  13.1473512
  68.0282456  56.1619614  13.6784731  40.6585774  64.6655931  18.5866392
  40.7720363  64.1409769  19.3791900  39.8145365  65.1009052  18.7063477
  61.3339989  55.5711016   8.3109293  61.2621723  55.7902439   7.3819248
  61.2825248  56.4145120   8.7606416  75.7579017  40.2896400  82.1976762
  76.6242846  40.2914400  81.7907250  75.5239433  39.3634906  82.2588533
  37.8109534  48.5705423  17.8488848  37.8949469  48.1944152  16.9726968
  37.7125865  49.5105752  17.6975778  81.4119117  46.4469759  48.3100920
  80.6250501  45.9187304  48.1757892  82.1125374  45.9424083  47.8968523
  22.3327186  61.2847209  44.0354315  22.7159757  62.1607065  44.0800995
  21.4089624  61.4162720  44.2489746  15.8433577  54.4757827  72.4356134
  16.0548992  55.3541489  72.1194570  15.1092351  54.6075216  73.0355640
  63.2338822  58.7676871  72.0074873  63.2320088  58.2211109  71.2216866
  62.3148567  58.8104742  72.2716713   4.9012764  33.1111433  65.8302197
   5.5153908  32.6702759  66.4173579   4.2367001  33.4801561  66.4119411
  30.9732636  63.7743522  57.6972068  30.8942765  64.2602331  58.5181286
  31.1008607  62.8652494  57.9682844   6.0749243  66.7462304  53.1962707
   5.5338197  67.3554690  53.6985315   5.9054562  65.8919700  53.5934503
  18.2326171  32.3377383  30.2403568  18.4274099  32.3470492  29.3032331
  17.4976978  32.9431653  30.3382529   3.8493226  24.1994809  54.3749784
   4.2415841  23.9802660  55.2201455   4.4592605  24.8242247  53.9826741
  77.2182876  53.9991457  14.2507955  77.5155747  54.1237251  15.1520902
  77.6839748  54.6690681  13.7502245   6.4031254  63.2531742  87.9204315
   6.4041840  62.7092036  88.7080397   5.8190849  62.7966735  87.3148445
   2.1745949  10.8661610  89.1610457   1.7206835  11.6107591  88.7663688
   2.5682672  10.4054929  88.4200742  74.7918594  26.5147123  87.4861465
  74.2735672  26.4811264  86.6821086  74.2284034  26.9646135  88.1157004
  35.7596930  53.3558154  18.0222216  36.0245554  54.2655523  18.1580833
  36.2676117  53.0692888  17.2631743  74.5423008  47.3239780  12.6566847
  74.5605871  46.7815001  13.4451104  74.6034712  46.6988697  11.9343761
  51.1504608   4.4287637  83.0259888  50.4552990   4.5945024  83.6627875
  51.1939109   3.4747133  82.9617099  39.4357780  34.8271311  19.3173689
  39.5660887  35.7126862  19.6565490  40.2378438  34.3603564  19.5519827
  73.6457086  39.7984546  34.4600239  73.6430309  40.5308575  33.8437361
  73.8261903  39.0302306  33.9182768  64.4171841   1.4087431  42.0818132
  64.2835721   1.4582777  41.1352795  64.2296708   2.2929797  42.3967675
   3.8389620  36.9715178  23.0048342   4.5530670  37.4787970  22.6188889
   4.1251990  36.7990656  23.9018072   3.2719137  53.9211113  52.4361799
   3.1217833  54.0784295  51.5040084   4.2072949  54.0831398  52.5588199
  41.8636728  46.5576930  46.6426832  42.4922951  46.5336478  47.3641316
  41.4921800  45.6758348  46.6192075  33.7994021  62.0647902  37.8307704
  32.9199848  61.6969165  37.9175232  33.9173938  62.1836851  36.8883407
   5.2395996   5.3066387  69.2217193   5.2320420   4.8993792  70.0879261
   4.3231502   5.5241656  69.0513246  53.7300207  46.3480388  76.7578333
  53.8714426  45.9886201  75.8820195  53.4766260  45.5928511  77.2886011
  16.2041407  20.9164952   3.0999243  16.7045872  20.3153018   3.6516051
  16.0335384  20.4208641   2.2990020  74.3578348  31.8052097   5.1238943
  75.2166315  32.1571335   5.3580944  74.2540157  32.0234703   4.1977109
   6.9884389  54.2832681  32.8737938   7.6342744  54.7861306  32.3775502
   6.8559345  54.7888751  33.6756891  82.7305551  17.2852037  24.9102106
  82.4742030  16.7386395  25.6530316  82.4657325  16.7822091  24.1400825
  36.1679464  48.5262176  72.5842401  37.0536366  48.3908399  72.2474056
  36.1905428  48.1638736  73.4699195  18.1651114  29.3217202   2.4872653
  18.6571746  29.0929828   3.2757987  17.7124471  30.1339076   2.7145942
  71.3914834  37.1687777  23.0123812  71.1122155  36.7043846  23.8014188
  71.1539997  36.5833972  22.2932408  40.1101465  56.5420093  24.5454817
  40.5480055  56.1318704  25.2913351  40.8162336  56.9628433  24.0550007
  16.7183611  56.7379036  79.4087398  16.3485060  56.1455034  80.0633397
  17.4686285  56.2623797  79.0520779  65.3628112  54.3765093  68.4598472
  65.8195946  53.9642101  67.7266418  64.6046159  53.8136791  68.6166710
  25.9022024   1.7056280  65.5337094  26.5597230   2.4008688  65.5104987
  25.9473537   1.3629696  66.4263338  45.5779858  53.3582670   2.4423126
  46.3784177  53.3165235   1.9190553  45.7467539  52.7783237   3.1848858
  86.0551498  13.3250145  68.9373002  86.0051471  14.1813893  68.5126194
  86.9612982  13.0455278  68.8068620  14.0444090  27.6443126  61.7098547
  13.4395035  27.0884506  62.2011171  14.1805867  28.4062572  62.2729958
  63.0420142  13.7320347  44.4668187  63.9196631  13.3500023  44.4628910
  63.1720494  14.6276698  44.7785243  49.2831199  15.9834989  85.6560988
  50.0353534  16.5540119  85.4983286  48.5348474  16.4743088  85.3163551
  39.3451796  50.6208086  43.5992712  40.1020414  50.4115866  44.1466451
  39.5014634  50.1461117  42.7828951  34.6928619  53.9768818  37.1244281
  34.8636934  54.8784676  37.3968094  34.2515257  53.5794351  37.8750880
  19.0881466  68.6601250  43.5390862  19.1168404  69.3215436  42.8477585
  19.8744304  68.8237341  44.0598757  56.8094988   2.6367946  60.3866681
  56.3708498   3.4822191  60.2913977  56.4485850   2.0989374  59.6819109
  10.4493271  58.2904186  80.7625212  10.8087923  58.7372028  81.5289417
  11.1033011  58.4270153  80.0770350  12.2741520  52.4380760  21.7700898
  12.9935454  52.9559859  21.4088776  11.7184988  53.0777784  22.2153562
  82.4394427  24.4739118  34.6399624  83.3205246  24.2030899  34.8979976
  82.1161868  23.7533974  34.0990406  45.1898915  64.2737378  23.6805999
  44.5544306  63.8778760  23.0841816  45.7451150  63.5447586  23.9572730
  33.4322566   7.3220037   1.3092028  33.1042150   7.6494193   0.4716949
  33.7842901   8.0965307   1.7478509  69.3916548  70.2277977  68.0205298
  70.3374126  70.3199277  67.9052647  69.0311011  71.0609559  67.7170826
   1.1473211  45.5320865  49.8127301   0.2851502  45.6114605  50.2208882
   1.4335761  44.6444975  50.0283122  19.5452292  63.5800727  76.3515185
  19.6192733  63.2106807  75.4715759  19.8712430  62.8899700  76.9291907
  35.2706826  43.6453936  78.8228110  34.9334429  42.7496038  78.8149389
  34.9011633  44.0334684  79.6159600  57.2394085  14.2354696  78.5231953
  57.9926737  14.1446682  79.1067863  56.5080208  13.8642036  79.0166175
  41.3404109  65.5004303  69.3221573  41.5576977  65.1436002  70.1833718
  41.2478382  66.4417102  69.4693113  45.4125567  55.2518652  23.1689249
  45.6719819  54.8939726  24.0179499  44.5486275  54.8742888  23.0037149
  64.4981819  57.4787294  74.4064186  64.5058680  58.1780298  73.7528501
  64.8053780  57.8984925  75.2099492  75.9100925  37.1309630  49.9130776
  75.1377743  36.8187207  50.3845234  76.2901686  36.3419200  49.5268327
  47.8139914  47.9929121  53.0338545  47.7236521  47.2446181  52.4438318
  46.9874688  48.4677799  52.9467179   9.1337167  29.1268288  25.4428149
   9.0992784  29.3851415  26.3638579   8.5010074  28.4121921  25.3706680
   6.8095620  60.0731298  72.2815062   5.9259102  59.9396492  71.9386153
   6.6941498  60.6831154  73.0100866  58.0518188  61.5351058  75.6420337
  58.2300232  61.2994580  74.7315695  57.7951177  62.4565035  75.6051185
  29.1901495  58.8221527  22.4438459  29.3420887  58.3911018  21.6028100
  28.9758811  59.7263795  22.2142922  48.5238886   0.9952059  48.7363163
  48.9372944   0.1322098  48.7125429  48.7640064   1.3988634  47.9022684
   8.8539697  22.2474880  73.9696952   8.4735789  21.3716997  73.9023934
   9.6020509  22.2302132  73.3727798  48.1032343  29.3757549  76.3013528
  48.6364698  29.7195020  75.5846034  48.5264558  29.7053216  77.0941334
   8.0431547  71.1210150  53.1490611   7.1616935  70.9659572  53.4884947
   8.0649231  70.6510273  52.3154728  69.6671468  42.4595777  24.9638599
  68.8371254  41.9876206  25.0313340  70.1506777  41.9971058  24.2793532
  46.0789579  23.7545845  13.6417536  46.2858322  24.3397572  12.9130509
  45.9134085  22.9070686  13.2287862  49.5610107  26.6083111  68.6650619
  48.9842541  26.1204040  68.0772436  49.0405952  27.3636102  68.9387823
  76.5918770  60.5155841  45.8035951  77.3651046  60.3927850  46.3542959
  76.8825102  61.1097753  45.1117129  58.7094929  58.4969290  15.6711550
  58.4776278  58.4053044  16.5953170  58.1142842  59.1696772  15.3404462
  11.0529066  50.1830288  68.9291058  11.9679465  49.9223784  69.0339637
  11.0940222  51.1055097  68.6769740  39.4166430  43.1526544  22.7002774
  39.3484239  42.9193575  23.6261016  39.3686625  42.3157361  22.2382196
  63.3640312   7.6795852  32.9986847  62.4955340   8.0560182  32.8564086
  63.8157349   7.7968389  32.1629532  29.2927725  21.0889527  14.2561904
  28.5357905  21.0767700  14.8419051  30.0419655  20.9275310  14.8296751
  14.7574867  52.5258665   1.3704186  15.5975452  52.0712695   1.3081672
  14.9763937  53.4505171   1.2549508   2.5967890  27.9090714  61.1567259
   1.7167490  27.8575496  60.7837556   2.8936547  26.9999411  61.1965334
  61.3945084  15.4928201  65.5681555  62.3221083  15.2566454  65.5647167
  61.0839135  15.2563776  64.6941660   1.8196195  46.3612599  15.8364707
   1.0607029  45.8634929  16.1406178   1.5260010  46.7728834  15.0237062
  25.7888044  58.4834784  80.2374078  25.6189606  58.2450248  81.1487391
  26.3923276  59.2244175  80.2921887  56.4257926  20.7710830  31.8225212
  55.6312438  20.2919065  31.5873321  57.0839289  20.4643668  31.1988116
  68.6704352   2.7475488  32.9948640  69.3666956   2.7943669  33.6500444
  67.9785309   2.2380340  33.4166400  21.1208696   7.5590757  82.4615990
  21.6099597   8.2128060  81.9619397  21.4735364   7.6229195  83.3491698
  64.8908563   6.4120481  42.5814988  65.3012842   6.6562636  41.7519570
  65.4584013   6.7938704  43.2510780  31.5453454  21.2705324   2.1621196
  31.9513260  20.4586328   2.4658148  30.9767661  21.5386124   2.8839801
  73.6012741  54.2090758   7.6652845  73.6356434  54.9301838   7.0367514
  72.6869383  54.1803246   7.9470562  60.0870275  34.4477908  64.5922376
  60.4955441  34.5541925  65.4513212  59.1844496  34.7405187  64.7183145
  35.2352466  44.9920690  89.0996792  34.7647484  45.6910969  88.6455610
  35.4051897  44.3380565  88.4217273  63.1094695  60.3290214   3.5606181
  62.2895873  59.9126487   3.8264356  63.3813178  60.8337176   4.3271767
  61.9894214  14.0870366   2.4542404  62.4138210  14.6966266   1.8504882
  62.1626257  14.4504640   3.3226600  63.5213732  29.9654079  39.7906846
  63.9808558  30.8023624  39.7227531  64.0568161  29.4462289  40.3906729
  76.8354160  35.0551152  48.2898881  76.2483293  34.3768050  47.9560374
  77.6595304  34.5977004  48.4567387  18.3446449  43.5023745  45.6845092
  17.8105292  42.9967339  46.2971100  17.8738766  43.4456690  44.8530084
  52.9658709  46.3899991  70.4757394  53.0443776  46.9504497  71.2477262
  53.1677760  45.5109903  70.7963789  15.3383117   2.8566600  82.9393978
  15.4613229   3.7463038  83.2705078  15.2160037   2.9668185  81.9964568
  10.0737739  19.6192353  14.9911570  10.6550947  20.3756376  14.9127129
   9.2861175  19.8715105  14.5092996   6.9878386  27.8211311  67.3359909
   7.2434355  27.7403959  68.2548945   7.7002344  28.3165170  66.9318661
  35.5944416  67.8816340  59.6075403  36.1313266  67.7903531  58.8203591
  35.5271805  68.8267656  59.7433117  55.5259259   3.0481992  67.2297384
  55.7411913   3.9796427  67.1817206  54.5929446   3.0286691  67.4428024
  13.4906756  60.4283400  33.4145576  14.0527805  60.9055813  32.8042210
  13.1360548  61.1042766  33.9921264  43.2580798  39.2091678  71.2406850
  43.0428675  39.4736723  70.3462841  43.6578965  38.3447290  71.1451654
  30.1470521  32.1723664  24.5610954  29.5282978  31.9030400  25.2399461
  30.9887410  31.8205773  24.8509851  58.5363955   5.5853793  10.9625940
  58.0925855   6.2465716  10.4314733  58.2270745   4.7498790  10.6126059
  71.6227352  51.3869534  42.2573762  71.8762084  50.8842907  41.4832229
  71.5056475  50.7288337  42.9425045  79.7632253  52.8417787  25.6538588
  80.3145736  52.5364373  26.3742847  79.7533306  52.1124012  25.0340666
  74.6412105  23.3215710  71.4038274  74.6426443  23.6388020  70.5007248
  75.4863583  23.5997796  71.7567538  19.8328358  11.6256079  18.8342515
  20.7020418  11.2832150  18.6257331  19.2389962  11.1322728  18.2683833
  36.1860845  17.6557583   4.0998953  35.6277279  18.4093700   3.9087432
  36.9676756  17.7949899   3.5651414  61.2752445  54.5853601  51.3755374
  61.9272557  54.7119156  50.6862647  61.7077650  54.0171653  52.0129639
  62.7853715  64.9922073  14.8086521  63.5399566  65.5652812  14.9443705
  63.1533866  64.2005218  14.4161845  79.2231758  63.7258741   5.1274419
  79.3319993  62.7850054   5.2658449  78.8931118  63.7996438   4.2319825
  49.2929623  48.5812755   2.6357422  49.2705416  49.3346817   2.0457352
  49.8447713  47.9412912   2.1861215  12.6238510  57.3479630  37.8501798
  12.3613717  57.1541545  38.7500547  13.0945686  58.1791482  37.9117259
  78.2984383  45.4977898  47.6769524  78.9187577  45.0217589  47.1248381
  77.7580307  45.9910181  47.0597674  86.3099898  50.9145586  30.2956808
  86.0504434  50.1150736  29.8377603  86.1151768  51.6187516  29.6773024
   2.1694025  65.1197194  60.5586974   2.1826255  65.1186525  61.5158055
   1.3180547  64.7463982  60.3305085  39.8688473  51.9057799  73.2869623
  40.4934367  52.6303260  73.3209167  39.0360896  52.3180028  73.0571391
  66.0768119  43.5603044  18.8048812  65.1557432  43.3980387  19.0086803
  66.4920645  43.6874310  19.6578970  19.7386742  27.9938340  78.0543565
  20.1255910  28.1619664  77.1951367  19.7838373  27.0430616  78.1554708
  53.7117241  46.2295158  18.8375552  53.3288224  47.0790433  18.6186463
  54.2672647  46.0168040  18.0876485  29.9547928  56.7046379  29.0056008
  29.7508655  55.8140787  28.7200316  30.7849677  56.9098659  28.5755740
  15.6860022  67.2030832  16.9194237  15.8884116  66.3700672  17.3452718
  14.8660981  67.0406130  16.4529554  11.5790686  59.2192480  83.8301674
  12.4615447  59.1060896  84.1832439  11.2301874  59.9789908  84.2963267
   5.5895117   2.0065168  25.6559128   4.7659464   2.2693451  26.0668792
   6.2141708   1.9598625  26.3796919  10.0069822  42.3565744  65.9093120
   9.1299663  42.1650099  66.2415439  10.1036826  41.7870124  65.1461082
  25.8022433  54.2379713  68.0389933  25.5032275  54.0974534  67.1406192
  25.2964521  53.6143692  68.5600763  65.1912874  66.4253490  31.2587745
  65.3990369  67.2587703  30.8363046  64.2649267  66.4977170  31.4886671
  62.4391965  65.5359650  63.7908259  62.3991663  66.3665722  64.2648735
  63.2491981  65.5885226  63.2835123  82.9431953  28.7249145  80.3333393
  83.4682860  27.9252190  80.3017361  83.2563320  29.1864669  81.1112510
  69.1285736  64.6482329  38.4507115  68.5374621  65.3376668  38.7532012
  68.5548349  63.9043899  38.2669908  62.2478070  20.2763700  67.0105742
  61.9099768  19.8797604  66.2075777  61.6848296  19.9311149  67.7034575
   7.9695908  42.3814237  73.3068306   8.5856990  41.6713370  73.4868842
   8.1153944  42.5972379  72.3857457   1.1216655  44.7550987  39.1392016
   1.0150271  44.7121960  40.0894749   0.2516059  44.9813690  38.8105226
   1.7582350  10.7931826  41.6151937   2.1938283  10.1954569  42.2228238
   1.9932250  10.4654854  40.7470772  30.9892543  54.7183939  79.9926674
  30.6156684  53.8912802  80.2968850  30.9914726  54.6435870  79.0383976
   2.9847830  50.0653401  59.7007291   2.2778844  49.4639412  59.4665378
   3.1609546  50.5528354  58.8960281  47.2639987  17.4582402  66.8108743
  47.1617570  17.3939323  67.7604232  46.5631043  16.9108150  66.4568904
  49.3772656  49.4030960  51.4329648  48.8231086  48.9760594  52.0862500
  49.4815069  50.2982388  51.7555867  15.0855176  60.3635254  25.3409801
  15.6484758  59.7184350  25.7689617  14.8569385  60.9806127  26.0360964
   6.9275752  59.9061637  68.2528475   7.7479992  59.4485063  68.4363850
   7.0223488  60.7523623  68.6901090  65.4585576  26.5010609  75.3990688
  64.6955839  26.1835961  75.8820999  65.3404718  26.1588131  74.5129796
  64.8829248   9.4804125  66.6105191  65.6348006   8.8925133  66.6832452
  64.5734658   9.3634912  65.7123007   9.3100566  27.7754794  88.3146345
   9.0357497  28.5681000  87.8533969  10.2074534  27.6241648  88.0179618
  37.4929205  68.4315455  81.4484582  37.2910236  67.4977366  81.5073694
  36.6451267  68.8511202  81.3020531  10.1033525  65.3300632  11.6048003
   9.3503268  65.9209803  11.6058261   9.7524246  64.4943555  11.9124920
  57.4503348  39.4011145  40.2606311  58.2576588  39.5491201  39.7681333
  57.0205993  40.2562365  40.2786772   9.1899927  58.4385978  33.3241340
   9.3731880  59.3352300  33.6047085   9.5143153  58.3981692  32.4244606
  80.2603839  52.7489275  11.4303638  80.0778698  52.2918358  12.2513313
  79.4227530  52.7529447  10.9671252  50.4693289   0.9965225  54.3847027
  49.5940801   0.6093925  54.3673299  51.0529403   0.2609235  54.5705077
  78.9801675  32.0411836  40.3811959  79.8242403  32.0963549  39.9331680
  78.3347397  32.0221223  39.6745902  41.1250952  71.2099149  38.6273604
  40.3980241  71.0459952  39.2279682  40.9146197  70.6929369  37.8497579
  85.1941943  14.0729372  30.8076681  85.3811450  14.8162508  31.3810495
  85.8119892  14.1682962  30.0827764  59.1110599  68.2549616  26.1061814
  59.1863175  69.1984080  25.9630837  59.3920091  67.8640597  25.2788392
  48.6113085  57.8613118   2.0974721  48.5284219  57.3550697   2.9056061
  49.5514766  58.0171234   2.0078149  70.5140638  43.9822413  55.8943963
  69.8032954  44.3263444  55.3534404  71.2817339  44.4907693  55.6330277
  20.3021684   7.5120541  73.2422043  21.0755697   7.4830057  73.8054436
  20.4906298   6.8849336  72.5440396  62.6458539  29.1681268  78.6323354
  63.5841704  29.1158965  78.4504953  62.2640424  29.5111699  77.8243916
  17.2716345  25.7040805  18.5856498  17.2814984  25.8647319  19.5292206
  17.2275733  24.7512717  18.5053633  70.6523143  31.1478686  68.7014086
  71.4929426  31.1467780  69.1592018  70.7322142  31.8498219  68.0555684
  75.6100689   0.1167130  51.5698219  74.8544292   0.1258555  52.1573223
  76.2779373   0.6244294  52.0306989  21.0014844  63.7690824  56.2740295
  20.2926042  64.3685538  56.0408884  20.7736231  62.9477772  55.8384050
  81.4434192  34.0321952  87.9395123  81.6842885  34.5058476  87.1433545
  81.3304718  33.1255945  87.6539427  55.8943464  21.6588850  89.0748508
  55.4785184  21.9432141  88.2609246  55.2491861  21.0828034  89.4848875
  36.7964291  64.8058411  22.9545661  36.2099722  65.4984601  23.2588345
  37.5925292  65.2658459  22.6883857  71.2602286  48.7310306  83.2183325
  71.5594413  49.6396237  83.1842405  70.4462157  48.7656232  83.7207448
  63.6064439  11.5057355  22.5338339  63.4128632  11.0470419  21.7163019
  63.9670596  10.8300548  23.1079800  54.1528793  40.3851854   9.6798400
  54.8932376  40.7369020   9.1854749  54.0574057  39.4874012   9.3618773
  52.1653374  13.8561748  10.7670602  51.3818200  14.3364571  10.4993642
  52.8455758  14.1511102  10.1616506  51.4796781   8.6790907  38.3157422
  50.9307527   8.0114665  38.7270701  50.8840670   9.1562434  37.7379840
  55.6511327   9.7746180  66.2659878  54.8455559  10.0183707  66.7219072
  56.3439861   9.9180607  66.9106663  64.0189381   8.3361964   7.9963864
  64.7097697   7.9394129   8.5269959  63.2060081   7.9865870   8.3612835
  61.7510334  64.8083916  29.8186208  61.9501455  65.0263491  30.7291595
  61.7378361  65.6525932  29.3676428  40.8588818  57.7876890  88.7272953
  41.0093138  57.3874451  87.8709035  40.0094059  57.4454842  89.0057166
   1.1878335  47.2230874  65.9477122   1.0484188  47.2828699  66.8928162
   0.9623358  48.0925293  65.6168748  77.0760809   9.0642522  81.1119723
  77.1629569   8.4454955  80.3868347  77.5224009   8.6391735  81.8443236
  40.9241967   7.3976271  25.2372454  40.6517763   7.6200470  24.3469935
  41.8735745   7.5197231  25.2347598  19.3510908  61.0163980   0.7080251
  18.8049475  61.7483395   0.4212831  19.5185653  60.5154188  -0.0902254
  72.2873576  12.7779147  68.6601965  71.6891396  13.1344559  68.0035037
  72.6085758  13.5454515  69.1334172  26.8550665  49.9588247  88.9826209
  27.4516280  50.5982481  89.3718303  26.2411282  50.4849368  88.4702563
  72.4429464   9.4120743   2.6885168  73.3739399   9.5866991   2.8263180
  72.0071771   9.8415611   3.4246404  34.1853779  59.7117105  11.6059099
  34.5075819  58.9867939  11.0702680  33.2457258  59.7431167  11.4261894
  11.8616777  47.6692507  40.1786554  11.8218449  48.6103070  40.3491204
  11.8888190  47.2693254  41.0478821  47.6457462   6.4662645  57.8657651
  48.3667360   6.8701762  57.3827942  47.4545318   5.6623399  57.3826768
  20.0457140   1.1633441   1.4142206  19.3444096   1.7438488   1.1185550
  20.8467476   1.5643234   1.0768889  31.0314070  40.1021548  29.0855946
  30.2788100  39.5224597  29.2029967  31.3891723  39.8601676  28.2313827
  19.2271053  51.2736792  20.0856735  20.0381457  51.2950369  19.5777471
  19.5148211  51.1620720  20.9917614  72.5734097  12.2704079  27.0088980
  72.1049433  11.8616069  27.7366705  72.3206553  13.1927508  27.0492776
  63.3149406  44.7331592  17.3508786  64.1294314  45.1525719  17.0735168
  62.7727806  45.4529162  17.6737475  46.5770706  24.2148647  54.6822439
  46.9408881  23.6882914  53.9704931  46.0913690  24.9115274  54.2406708
  58.5990038  59.9724390  29.8856419  57.8566048  59.5532557  29.4504858
  58.9559526  59.2931743  30.4578472   7.1051920  45.3390659  58.1079779
   6.8019833  45.5945252  58.9792052   6.3316097  45.4240628  57.5506828
  78.9673434  37.8933790  23.6075713  79.8009372  38.1081045  24.0261954
  78.7058878  38.7014325  23.1660713  60.0831301  17.7062944   2.2314562
  60.0242971  18.1156458   1.3682053  61.0225916  17.6480347   2.4053808
  45.7807844  55.9849784   3.5006659  45.8548237  55.1353627   3.0660359
  46.5943315  56.0715352   3.9975369  72.6786613  11.6578348  32.8414257
  71.7784621  11.3900832  33.0263101  72.5895886  12.4050993  32.2499075
   2.3135151   0.4793494  64.4326773   2.5102614   1.1948059  65.0373629
   1.8858122  -0.1826094  64.9759199  74.8364035   7.5103206  54.1619933
  74.6239442   7.8814744  55.0183447  75.2123754   8.2408834  53.6709179
  82.6544749  70.7095514  49.7987711  83.2804847  70.6163056  50.5168580
  82.9087530  71.5232515  49.3634935  27.0043508  40.8326865  72.6784381
  27.6790403  41.4985687  72.8112039  27.3316622  40.0637062  73.1450948
  21.9712870  50.8977898  64.4495491  22.0799936  51.7374437  64.0030111
  22.6046599  50.3178846  64.0267246  55.9932795  15.2179094  31.0903071
  56.6949536  14.6032559  30.8756297  55.3872920  14.7105253  31.6302815
  23.0801951  49.6898623  42.4323631  23.5757390  48.9937776  42.0009304
  22.2930008  49.7905229  41.8971767  73.1939097  27.2977626  54.6107559
  72.2916918  27.0287638  54.4379139  73.2202507  27.4552714  55.5545403
  31.5780437  54.4104573   8.2250875  31.7105295  54.1402995   7.3164104
  30.8192056  53.9052694   8.5169467  80.6209955  40.4074963  12.6860977
  80.9495634  39.6308779  13.1390204  81.2518560  40.5591866  11.9823670
   3.4183897   1.7938564  45.6899519   3.3785798   1.5831892  46.6228326
   2.5062985   1.7721873  45.4003801   7.2800810  65.3052376  32.8939406
   7.9102225  64.9683726  32.2570140   7.8149034  65.5737497  33.6410002
  64.5305879  20.7276184  62.0637664  64.4862186  21.5275070  61.5398949
  65.3532672  20.3146944  61.8012321  19.3304449  56.3242223  74.7160526
  18.5994219  55.8279592  75.0842376  18.9781968  56.7100055  73.9139775
   2.6484350   9.7219133  69.1291040   2.4748079   8.9783807  69.7063775
   2.6362152  10.4833477  69.7090180   5.8057146  50.8732940  81.8430286
   6.2992410  50.1217316  82.1713843   6.3908172  51.2846215  81.2068710
  50.7019936  21.4106561  13.8358848  50.1714794  21.9160583  13.2199667
  50.4769798  20.4983657  13.6533284  24.5820668  40.8214124  83.5233140
  23.7460259  41.1206810  83.1659547  25.2118159  40.9730983  82.8185877
  23.8714143  64.2631551  31.5157798  24.0437389  64.1009084  32.4432560
  23.2937564  63.5474154  31.2507139  75.2266667  31.0107077  85.0318449
  75.8443992  31.7127838  84.8275716  74.7412167  30.8745543  84.2181912
  86.7310955  31.2298323  13.4508451  86.7893722  31.9494542  14.0793194
  86.1750376  31.5689017  12.7493728  29.1451500  25.2018656  76.5783191
  28.9866259  24.8474964  77.4532616  28.2726426  25.4016120  76.2391081
  60.6286310  59.5887564  65.8841173  60.4302014  59.6301860  66.8196071
  60.2805539  60.4066569  65.5289935  35.0140353  34.7679030  75.0731889
  34.9460194  34.1613389  75.8105393  35.5187086  34.2895933  74.4153466
  81.3940305  14.7687458  35.1975214  81.8698597  15.4658621  35.6490159
  81.9929659  14.0222063  35.2111943  20.8584164  22.2822027  56.3655123
  19.9972501  22.6165130  56.6162334  21.1928426  21.8631880  57.1584925
   5.5394578  10.6595485  23.4076491   6.1706362  10.0920171  22.9652086
   6.0780281  11.2976211  23.8756632  72.2151587  23.7826046  22.3194344
  72.2380693  24.4555672  22.9997492  71.3095482  23.4726022  22.3195922
  58.6531411   9.5764744  35.8440348  57.9235561  10.1875776  35.7416115
  58.2703971   8.7158181  35.6737128  21.2006499  42.0937110  58.2714220
  20.2745323  41.8551358  58.3116697  21.6657798  41.2856201  58.4879288
  22.7516392  20.1983566  30.0566100  22.3044269  20.6736404  29.3563684
  23.2374555  19.5080887  29.6052293   7.6052670   8.6194960  18.5798244
   6.7143967   8.5025777  18.2498060   8.0709823   9.0520249  17.8641011
  33.3409509   2.9154488   6.4323588  34.0747850   3.4875550   6.2078285
  33.5096134   2.6535971   7.3374657  74.6723968  45.3427292  10.7187748
  74.1565519  44.6933972  11.1967954  75.5818426  45.1181237  10.9154790
  53.0991189  52.7009534  60.0665955  52.2229058  52.4972865  59.7394833
  53.2856179  52.0075880  60.6995997   7.6891372  36.9414555  85.6074541
   7.2564846  37.7336796  85.9259264   7.8269933  36.4116942  86.3926805
  60.2465064  36.4599571  77.9712313  60.8759327  36.4556490  78.6923664
  59.4329807  36.1403961  78.3614732  25.4932463  47.4809408   2.4014928
  25.5945730  47.2779162   3.3314099  25.9677774  48.3037312   2.2828838
  53.5757674  20.9472825   9.5437480  53.4297240  21.1027480   8.6106169
  54.5259764  20.8677519   9.6274711  21.7542559  64.0636323  73.8831245
  21.8266973  64.8277235  73.3111553  21.2737598  63.4196848  73.3628487
  46.5478142  60.4977692  69.7500331  46.6030760  61.3606937  70.1605684
  46.0188332  60.6394624  68.9649637  49.8810343  66.7988079  11.9861725
  49.4361406  65.9925319  11.7249820  50.0639395  66.6802911  12.9182300
  73.1284305  31.4564306  30.9610176  73.1055094  31.0573797  31.8307675
  72.4435451  32.1246680  30.9859694  12.3809648  49.2871988  66.3052707
  12.6368892  49.0158283  67.1867993  11.5408218  48.8536095  66.1556317
  66.9041018  67.2899721  47.1624546  66.3313191  67.5223061  47.8933259
  67.2602398  66.4338438  47.4000297  54.0935792  44.3652522  85.4074705
  54.5407185  43.5677610  85.6908537  53.1646083  44.1346347  85.4152459
  21.4933524  59.8933403  25.1869322  21.0903771  59.8255950  24.3213380
  20.8133188  60.2806908  25.7380636  72.8218406  50.6847804  31.2167404
  72.2428677  51.2745585  30.7338491  72.7827242  49.8605093  30.7316849
  80.2358707  70.5403138  48.9149943  81.1544971  70.4061258  49.1481275
  79.8394173  69.6727000  48.9943851  32.3291553  36.3120485  54.1867137
  32.0990920  36.1837319  53.2664759  32.4427070  37.2583324  54.2755088
  39.3422320  64.2641630  59.1050869  39.2855722  65.1464479  58.7382153
  38.5911350  64.2014304  59.6951291  29.8409168  62.0297863  41.2032117
  30.1871747  62.8470273  41.5616171  29.8491789  61.4216134  41.9423256
  47.7801762  63.0938507  55.3694809  47.0043452  63.0074652  55.9234265
  47.7539399  62.3256257  54.7990655  24.1876254  11.4371755  61.1459213
  23.7914796  10.7011446  61.6123533  23.7209081  12.2065831  61.4721403
  58.1347988  11.8899257  52.1020489  58.3758002  12.7439135  52.4610126
  58.2901577  11.9730940  51.1612097  56.4293825  22.2130689  49.9192693
  55.7444568  22.4399968  50.5482465  56.6265309  23.0363012  49.4724438
  84.0414423  58.5559409  47.9304547  83.2240821  58.0580212  47.9456264
  83.7741123  59.4602239  48.0948893  55.5610524  71.3397529  49.5027587
  55.6105096  70.3936829  49.6396430  54.8283011  71.4562763  48.8980028
  67.8149093  44.5595246   6.7008863  68.2866790  43.7806907   6.4057881
  68.2244591  44.7855461   7.5360002  66.9332681  24.8141120  80.7786666
  67.3154906  25.4918127  81.3362144  66.6589994  25.2802492  79.9889041
  78.3285969  59.5567989  17.5864869  78.2947660  60.5015638  17.4364649
  79.2592767  59.3660300  17.7034237   9.8715109  40.3707801  59.5706759
   8.9246828  40.3086508  59.6967253  10.1041947  39.5680772  59.1040302
  80.3088874  14.9187265  25.4317964  80.4195113  15.7635298  25.8680321
  80.8881972  14.9642612  24.6711661  39.7639319  36.9037983  42.7697787
  40.4601104  37.0095889  42.1214148  38.9636378  37.1452799  42.3034658
  10.8720887  42.4724850  32.1458117   9.9638211  42.6503904  32.3900072
  10.8587581  42.4280865  31.1897348   5.1346269   4.9939650  54.4082223
   5.3550851   4.4359568  53.6623960   5.4454616   5.8636769  54.1567968
   5.6751710  62.9233726  13.3822828   5.3679778  62.9729523  12.4770723
   5.6548938  63.8288449  13.6920258  25.7916630  68.5616830   0.2530476
  26.0629987  68.8670531  -0.6126070  26.5647270  68.6852751   0.8038005
  47.9424370  64.8915429   1.1475416  48.2369945  64.4438096   0.3544447
  47.1705662  64.3996198   1.4276469  55.6985718  53.9173223  18.9465958
  56.6006061  54.1636796  19.1512271  55.1629109  54.5108622  19.4729129
  45.8919495   0.8396983  49.2110662  45.5735644   1.5109337  48.6074886
  46.8318136   0.7877227  49.0373256  58.3482716  18.7408750  19.0887489
  57.9432284  18.5499009  19.9347399  58.9095661  19.4976844  19.2573309
  15.9646063  47.1007148  19.9572781  16.7488195  46.7030934  19.5789414
  15.2979849  47.0104759  19.2763194  22.9672684  52.6264108  80.5599612
  22.9796046  53.5297816  80.2437321  23.3231576  52.1137143  79.8342084
  12.2339485  40.4229735  61.3115108  11.6355712  40.2154059  60.5938117
  12.0640719  39.7473772  61.9679736  21.5105432  53.8807895  38.4370866
  21.1431120  53.1040326  38.0153346  20.7499226  54.3484495  38.7820246
  36.7740931  60.4788317  25.7510640  36.4826506  60.5625730  24.8431650
  37.7057360  60.2692294  25.6851844  41.7989195  44.3903820  26.7552725
  41.7269703  45.3144795  26.5163186  41.7524181  43.9230027  25.9212304
  46.0934351  28.1627055  50.8184649  46.6340632  27.3764823  50.8946633
  45.9089876  28.4151526  51.7231646  48.3214399  68.2664953  47.4333852
  47.7165989  68.6376652  46.7910208  47.7851828  67.6611202  47.9454215
  30.5039319  52.5963121  58.1724549  31.4134898  52.4213482  57.9309513
  30.3616057  53.5096849  57.9240092  73.7244133  43.9151922   1.8671911
  73.2602876  44.7521268   1.8482272  74.4367874  44.0220305   1.2368414
  32.4374766  42.7427310  32.8427612  32.6643581  42.6634814  33.7693010
  32.5661610  41.8628396  32.4885532  21.9218956  30.2379946  67.2433196
  22.1336431  30.0090061  68.1482832  22.1431491  29.4544757  66.7399542
   9.7666188  45.8110322  78.2868715   8.8644229  45.9297763  77.9899300
  10.2411384  46.5542248  77.9144099  81.1237545  34.0214836  41.4845098
  80.9506881  34.1743539  42.4134396  81.9023035  33.4647155  41.4743835
  77.8101164  54.3940567  17.0415941  77.9923766  55.0299310  17.7334588
  77.1403842  53.8203976  17.4138923  83.0043400  62.2843372  74.1126965
  83.1103935  61.4742383  73.6139740  83.5621845  62.9180518  73.6616453
  45.1310491  51.2492047  59.0565490  44.7399825  52.0449452  58.6958611
  46.0537719  51.3016441  58.8074215  26.8943983  53.7199036   6.2818269
  26.6031436  54.5558050   6.6460679  27.4219686  53.9612180   5.5204672
  69.5321572  29.4110447  55.3467226  69.1874161  29.9085435  56.0882618
  69.8672233  28.6030363  55.7354190  41.3754218  46.9110280  65.3734882
  40.5904413  47.2791088  64.9678358  41.6547568  46.2208912  64.7718944
  35.0884527  57.9627714  33.0286300  35.0793188  57.7600710  33.9640769
  34.7603826  58.8603845  32.9748475  26.8504752  27.3560150  45.2390757
  25.9545065  27.0429799  45.3634985  27.1009109  27.0282732  44.3753054
  81.7079717  10.6640504  84.0751148  82.4895358  11.1575413  84.3238237
  81.9777967   9.7470221  84.1249682   4.6567904  13.4051412  36.7793037
   5.5462641  13.2889251  36.4452946   4.5209643  12.6591827  37.3635374
   1.6234122  57.3525639  54.6886581   1.1254518  58.0149911  55.1676753
   2.0355060  56.8227638  55.3710967   8.8974810  39.1671545  55.7792445
   8.8024980  38.4225256  56.3731619   9.6528454  39.6482405  56.1171983
  51.1831052  38.5792552  16.2854767  50.3644250  38.4244069  16.7566630
  50.9518362  39.2112354  15.6047803  52.7802313  44.6844810  78.5831000
  53.6213316  44.2639224  78.7617411  52.1497778  43.9643063  78.5726784
  54.1771784   8.7593475  86.5579474  53.8689241   9.5707832  86.1544834
  53.4135381   8.1822808  86.5490333  78.7349054  22.9938994  62.0410244
  78.6820821  23.1992688  61.1076087  79.6660903  23.0674252  62.2501191
   5.3662148  14.9943660  84.7003218   6.0033578  14.4437587  85.1554175
   5.1873947  14.5286192  83.8834160  14.4834686  68.7877281  61.1982914
  13.6255925  68.9462792  61.5921720  14.3177343  68.1350944  60.5179729
  41.1243744  23.2371619  -0.2101204  41.1642585  24.1769083  -0.0325880
  41.5934840  22.8351682   0.5210219  33.1186945  11.4830317   9.9240710
  33.6334799  10.6806067  10.0097560  33.3047047  11.9735671  10.7247001
  43.7383908  54.7216022  67.8918556  44.6729004  54.7844591  68.0892706
  43.6990785  54.2241200  67.0750339  80.0450241   4.5980381  85.7998845
  79.8180573   5.2575817  86.4554149  79.8717679   5.0248034  84.9607864
  47.9568353  69.0149553  32.1107878  48.7472708  68.9334611  32.6444564
  47.6732655  68.1126794  31.9634169  20.3431881  48.7236792  43.7977228
  21.2320514  48.3736819  43.8581858  20.3541573  49.5026508  44.3538836
  68.5575061  29.8762187  45.6361100  68.9253593  29.3486765  46.3450635
  67.6369504  29.9878846  45.8734699  22.7547563  39.8716582  15.8100022
  22.0523126  40.4117458  15.4479110  23.4440463  39.8987649  15.1463936
  82.8972336   3.9836776  35.9729399  83.3306215   3.5944640  35.2133877
  82.8252508   4.9134780  35.7572513  17.9272417  42.3314155  77.7849835
  17.2721446  43.0134129  77.6367972  17.6244135  41.5903539  77.2602412
  84.6582104  58.9998190  39.0230498  85.1109561  59.4249854  38.2947046
  84.3000609  58.1961739  38.6460680  14.8489825  30.0516199   4.1366713
  14.6774795  29.6895999   5.0060159  15.4112276  30.8090302   4.2992809
  45.1654556  20.4314543  81.5154428  45.2034999  21.2855129  81.9459872
  45.4973711  20.5934083  80.6323602  40.6688386  44.1636791  43.7904059
  40.8111160  44.0001299  44.7227367  40.9175746  43.3442197  43.3627979
  47.8729516  25.5631548  71.1776813  48.5439341  25.9190788  70.5951587
  48.0824956  24.6314843  71.2433563  42.6492438   1.4786162  37.4840836
  42.2628863   0.7513227  37.9719399  41.9233824   1.8366228  36.9730177
  77.2138419  10.9861968  78.3647853  77.3268316  11.7630700  77.8171237
  77.9855695  10.4501543  78.1822288   4.1925105  11.3460123  64.0258033
   3.3744604  11.3859941  64.5212096   4.4906800  10.4422340  64.1283285
  74.0522301   1.0078855  68.1040744  74.2801345   1.9296623  67.9831662
  73.9798675   0.9014756  69.0525851  28.0314077  49.0019290  15.4227159
  27.3886127  48.3785218  15.0844707  27.8300738  49.0709261  16.3559554
   6.5145997  49.4673795  28.4325748   6.2432867  49.3579421  29.3439718
   7.1881478  48.8000278  28.3014009  48.0429499  22.0868988  17.3865878
  47.1939310  22.3701241  17.0472025  47.8280708  21.4507732  18.0687923
  43.6214056  32.5265183  69.3130438  42.8680603  32.1274371  69.7482872
  43.2700350  32.8670342  68.4903534  54.8125287  68.8721138  86.4959369
  55.5124260  68.2202505  86.4578614  54.1889828  68.5934948  85.8252703
  24.9284239  41.8476525  57.6763540  24.7153256  41.1445902  58.2899698
  25.8848511  41.8503689  57.6379948  60.1709018  66.9080812   2.2083335
  60.7475837  66.5905324   2.9031951  59.5204859  66.2140526   2.1010237
   2.1476509  21.2550808  23.8512630   2.4468451  21.3444465  22.9464269
   1.9820959  22.1530087  24.1385763  82.2236161  38.9231309  81.9028052
  81.9725101  39.7081528  82.3895478  82.5702327  38.3291474  82.5685922
  60.6380029   5.9682121  58.1032159  60.1805120   6.4586029  58.7861879
  61.0817396   5.2615326  58.5721868  52.7080771  45.6896744  57.0139349
  52.7288773  45.6044171  56.0607663  52.3897192  46.5791453  57.1679527
  23.1865276  17.8667157  55.6437670  22.5460376  17.9040955  56.3541241
  23.4760895  18.7724942  55.5344459  24.1500622  15.6907203  82.2097137
  24.0104552  15.6847948  83.1566596  25.0612536  15.4187312  82.1002421
   4.2589645  54.6227563  87.6889050   3.4281147  55.0511410  87.8948349
   4.0152039  53.7270428  87.4554315  63.6883370  33.2593328  65.5236345
  63.1644000  34.0521553  65.6383273  63.0543761  32.5439336  65.5739280
  43.9001162  61.5581449  77.5775729  43.8239426  62.2831201  76.9572179
  44.5304625  61.8655787  78.2290173   8.8031169  70.7631397  65.7886218
   8.2573266  70.2718237  65.1746564   9.2655003  71.3987616  65.2423452
  41.3347242   2.5640423   1.0354734  40.9112634   2.8667771   0.2321898
  42.1750252   2.2098926   0.7444338  71.5505126  13.0694159  35.8951429
  71.2134804  12.8073859  35.0384157  71.2406914  13.9677941  36.0098566
  69.1058012   9.6199181  67.3670444  69.8358923   9.5154683  67.9771994
  69.5053869   9.9783736  66.5745341  75.6868597  40.8980747  87.2620141
  76.4124236  41.5100760  87.3854781  75.1296235  41.3164913  86.6057770
  75.8782908  14.5095118  36.5110006  76.7160006  14.0465107  36.5008032
  75.2852229  13.9424908  36.0180609  71.8975035  40.8728062  16.6251657
  71.4252895  41.2802719  17.3512632  71.3700706  40.1076732  16.3957800
  74.3053685  12.0156662  46.1695875  74.9540472  11.3120740  46.1494430
  74.1528306  12.2272449  45.2486106   7.8382419  10.3966438  10.7830295
   7.6424935  10.1825251   9.8708522   8.7943868  10.4074694  10.8266382
  38.9766198  37.6335194  21.6226617  38.1726622  37.1190594  21.5504477
  39.6431708  37.0001678  21.8887583  35.9460300  58.9409821  15.4705957
  36.9007059  58.9557684  15.4027200  35.7700323  58.4320783  16.2619701
  14.1775726  53.1155778  24.2050952  13.5640304  52.5068996  23.7936239
  14.9894287  53.0090173  23.7093469  64.2919971  51.8662727  55.4646696
  65.1993086  52.0869286  55.6752134  64.1216050  51.0612707  55.9537199
  64.9473366  51.9475506   9.5326634  65.8235041  51.5726435   9.6221446
  64.5776130  51.9055012  10.4145750  51.2314634   2.2960838  57.5201416
  51.6373380   2.9412443  58.0991628  51.5484101   2.5253879  56.6465306
  42.1436215  56.8832318  82.7879520  42.7540059  56.7345277  83.5101360
  42.5587279  57.5653612  82.2601092  80.3155000   7.5935920  50.9507078
  80.3090547   8.5478443  51.0254932  79.8377186   7.2896325  51.7224366
  43.7309795  59.2052552  40.3234786  42.8195532  59.2717092  40.6082905
  43.7102416  58.5815271  39.5976929   0.1776442  49.8470023  41.1976426
   0.6938446  49.4671518  40.4866696  -0.3723824  50.5034123  40.7700582
  19.9034642   2.6811888  19.0585923  19.4866838   2.5912345  18.2016010
  20.4628648   3.4531868  18.9730242  44.6973163  71.5112300  67.6469790
  45.1283302  70.8066412  68.1307285  45.4090914  71.9561783  67.1869474
  57.0921372  57.5475630  73.7315920  56.2480903  57.1493112  73.9442235
  57.4530350  56.9902343  73.0421217  39.9482677  48.3694567  12.3830365
  40.7691602  48.0597708  12.0003329  39.5626420  48.9248558  11.7054995
  54.8539541  17.6975521  75.0476563  54.4650589  18.5549276  75.2205714
  55.6235562  17.6646400  75.6158652  29.8931603  54.4335642  61.6595657
  30.5216193  53.7413444  61.4543759  29.5756627  54.2166709  62.5361411
  77.1447989   1.7164484  78.8570566  76.3409426   2.2292928  78.7731673
  77.4764140   1.9317924  79.7287735  38.0689805  20.1624855  20.7798113
  38.5806783  20.9590107  20.6385851  38.1449752  19.6798942  19.9566696
  65.5589447  18.6924043  72.4154324  65.1388427  17.8628093  72.1884559
  65.1360514  19.3378654  71.8490641  43.9648922   1.6293153  81.8505990
  44.4245369   2.4680595  81.8123004  43.8115859   1.3981593  80.9344680
  31.2275416   0.9926662  68.4237914  31.8191891   0.4725667  67.8800253
  31.7888674   1.6608779  68.8170324  74.5579082  42.4650368  59.1999115
  74.7457385  41.5295455  59.2761192  73.6023296  42.5165118  59.1786601
  86.4935416  51.1071570  53.7526078  85.7658822  50.7539904  53.2407318
  87.0023495  50.3376905  54.0080832  50.0463545  32.4087985  27.5919120
  50.4077927  32.5592785  26.7184418  50.3241320  33.1705994  28.1005679
  73.3030976  56.1573096  78.2454934  73.8111970  56.7648287  77.7079179
  72.3940975  56.3137644  77.9896176  14.1208861  69.8120128  57.7520306
  14.0381948  69.0851929  58.3693853  13.2494804  70.2074582  57.7295140
  33.9477954  67.6341873  14.1626135  33.9290985  68.4783775  14.6134186
  34.3813608  67.0433779  14.7784034   3.8074740   5.2802290  48.1520624
   2.8890842   5.2325436  47.8865098   4.0342140   4.3819044  48.3925490
  74.5664136  53.6849773  12.9322221  75.5179845  53.6570005  12.8324129
  74.4275639  54.0699578  13.7975213  34.8996124  41.2810994  19.9688873
  33.9456454  41.3460648  20.0131387  35.1904685  42.1679205  19.7563244
  27.9303527  66.0400625  47.5149715  28.1162849  66.4299203  48.3691799
  27.8627273  66.7871129  46.9203504  29.1142927  26.3805354  46.4326636
  28.4215238  26.9772351  46.1493747  29.5567429  26.8467540  47.1419659
  64.6649243  18.3715568  46.9336680  65.6090442  18.2466807  47.0299772
  64.3052423  17.4845173  46.9290189  64.5577241  10.0752954  39.7572119
  63.8364317   9.5068003  40.0269938  64.8298446   9.7298442  38.9070085
  76.3443124   4.7872071  82.1498436  76.1519501   5.2286143  81.3225660
  76.8321096   5.4345762  82.6589596  76.9938303  27.1551823  40.2895963
  77.7224488  26.7063229  39.8607930  77.3707898  27.5077505  41.0957160
  42.4800335  63.5455988  25.4492719  43.3693449  63.8904762  25.5293754
  42.5449361  62.8703285  24.7739724  61.8218109  30.2421334  68.1959433
  61.7312232  30.7232958  67.3734420  62.6547985  30.5430721  68.5589854
  24.0742994  57.7618714  67.6590128  24.1933681  57.1673337  66.9183514
  23.5874027  57.2476688  68.3030308  63.6379881  40.9844174  33.5615893
  64.2257348  40.3192039  33.2034320  62.9758105  40.4861011  34.0405816
   7.3154387  30.6367189  42.4121232   8.2638628  30.5507982  42.3154738
   6.9559669  30.2149206  41.6316759  61.4890727  52.6554610  78.5312759
  61.2147165  51.8071690  78.8796454  60.7252053  52.9757596  78.0515392
  74.8999290  14.1923886  24.5749323  74.7647852  13.2590765  24.7389340
  74.0179994  14.5643722  24.5671814  15.3311924   2.5394345  85.9491340
  15.2409677   2.9632487  86.8026402  14.4681328   2.1634232  85.7759998
   4.3116246  56.7433838  40.2163845   3.7486085  55.9708796  40.1665646
   4.5906456  56.7777953  41.1313681   0.2420388   4.4745523  17.0667132
  -0.6369168   4.1530883  17.2675363   0.7393830   3.6879640  16.8427499
  28.6071774  62.3187162  13.9679310  28.2910206  61.5274300  13.5318771
  27.8116057  62.7796047  14.2341626  50.3974344  21.7659993  64.9103015
  49.6167466  21.5573065  65.4233373  51.0368167  21.1011053  65.1659148
  52.4476562  11.1073856  10.9115345  52.9369188  11.0320008  11.7307848
  52.4028272  12.0489391  10.7451034  32.7448301   2.9691647  17.8735036
  32.9963364   3.7830140  18.3101106  33.5524830   2.6566035  17.4657853
  34.3941862  45.3287261  25.1267042  35.1847588  45.2828927  24.5889997
  34.4834482  44.6043859  25.7460549  36.0475728  46.2943569  61.2686383
  35.5716185  45.4819665  61.0962398  36.0384510  46.3795935  62.2219920
  78.5435416  46.9560255  57.2646931  79.3458434  47.4497438  57.0950287
  78.2185094  47.3050525  58.0946124  55.4678896  43.7817936   8.7970808
  55.7062560  42.8548079   8.7865491  56.1535911  44.2112454   8.2855963
   1.5813078  21.5063536  38.5825076   1.0083443  21.2413446  39.3020317
   2.4247355  21.6813045  38.9999449  78.6628974  46.4314507   8.1377338
  78.9671712  45.8248348   7.4627030  77.7763425  46.1352472   8.3439273
   9.8857956  53.9755465   6.5391139   9.4971429  53.9336873   7.4128580
  10.7973769  54.2230173   6.6940641  35.1668192  28.2234432  18.3891616
  35.0624401  28.7037881  19.2105054  34.4199725  27.6252233  18.3649769
  13.9425580  47.8833581  64.3811937  13.5906168  48.6319690  63.8995807
  13.5153533  47.9266398  65.2366788  49.9036758  67.6260449  21.4045580
  49.2529619  68.2279374  21.0432704  50.7213867  68.1235307  21.3951408
  12.4184168  33.0481949  84.0038547  12.5814420  32.9442249  83.0663874
  12.6038376  32.1861248  84.3762605  60.9142477  49.0354116  87.1853879
  61.0383663  49.7750517  86.5906115  60.6706125  48.3069962  86.6141745
   3.1701183  69.8652931  73.4313211   3.3785542  68.9747038  73.7135216
   2.2216796  69.8598368  73.3022238  85.7357181  50.3236399  68.3232794
  84.9386402  50.6733531  68.7215247  85.8592530  49.4720988  68.7426225
  47.7148290  68.7947643   5.9567139  48.6701928  68.7369752   5.9698372
  47.4185303  67.8954938   6.0972541  77.5825317  56.7617588  81.9354524
  77.7045536  57.0195490  81.0217310  76.6431164  56.8621653  82.0892358
  42.6101053  44.8105046  10.0681967  43.3757585  44.6577280   9.5144220
  42.3900369  43.9464322  10.4163067  22.4749022  49.2463185  17.1154991
  22.9790930  50.0042735  17.4113499  23.1347746  48.6252665  16.8071248
  19.1516903  70.2672272   4.3652858  19.7517324  70.8799484   3.9401340
  19.2123394  70.4798761   5.2965935   7.9959965  47.1398173  13.8949077
   8.5185410  47.7154082  14.4533647   7.0916575  47.4131265  14.0488721
  59.8877737  58.2512685  25.3241765  60.0269926  58.4173288  26.2565251
  60.4176232  58.9139885  24.8811263  74.8193592   8.5519378  68.9123445
  74.8265257   8.2045468  69.8042525  75.7283272   8.8009290  68.7449758
  11.3713582  30.1899041   3.7857257  11.5743336  29.9926466   2.8713285
  12.2249675  30.3287247   4.1959839  83.2015308  33.3253903  49.5275955
  83.5878551  32.5057808  49.2190091  82.3358483  33.0754441  49.8506321
  36.2273946  71.0510955  22.5974859  35.8192852  71.8956602  22.4067268
  36.6298655  70.7872356  21.7700640  75.1619248  29.0715199  39.3270187
  75.7296014  29.8363748  39.2322979  75.7587093  28.3560089  39.5463911
  71.2526358  64.8590126  61.2147603  71.1482796  65.7906858  61.4079613
  71.9488390  64.5687189  61.8040502  37.0063102  35.9170421  79.6058424
  37.3990844  35.0887865  79.8814382  37.1648982  35.9552043  78.6626429
   8.5332025  56.3452504  35.1623506   8.6151843  56.8388839  34.3463624
   9.4334272  56.2403035  35.4702686  62.7752683  18.0646070  53.8075957
  63.1533748  17.6902436  54.6032837  63.2761323  18.8666210  53.6587988
  17.0594805  52.3285759  61.5135673  17.9754210  52.1394852  61.3097795
  16.9186600  51.9322282  62.3733986  29.6561069   1.1063513   9.4677971
  29.4410220   1.9909029   9.7636668  30.2058331   0.7477848  10.1645488
  63.0680131   8.5705361  53.4116132  63.9659757   8.7686589  53.1458268
  63.1167959   7.6892934  53.7821040  35.7405226  64.4995396  77.1103142
  35.7816875  63.6495156  76.6721402  36.4197600  65.0219996  76.6838123
  24.8102619  13.8258815  68.2176586  25.4906208  13.1768042  68.0386549
  24.0522420  13.3091843  68.4909015   3.1612478   9.7552415  28.6264293
   3.7747014   9.8738734  27.9012859   2.3156466   9.6072202  28.2030144
   8.3607116  13.8755157  29.2542778   8.7627668  14.3980398  29.9482174
   8.8657469  14.0898444  28.4699090  44.9873855   1.4500860  39.2423466
  44.7794112   0.6511413  39.7267699  44.5981277   1.3145545  38.3784360
  54.1747282  68.4192474  48.0318600  53.3765545  68.8629476  48.3187062
  54.4337777  67.8837452  48.7817684  81.6767730   5.0510988  29.7220088
  82.3563787   4.4190009  29.9561461  81.2109842   5.2166200  30.5416889
   1.2058149   5.6452686  47.1887310   0.5022322   5.0204991  47.0130432
   0.7876727   6.5033074  47.1169093   2.9088671  33.7649111  49.4265599
   3.2859137  34.2386565  50.1679323   2.0498555  33.4787148  49.7370799
  62.5536526  24.3607845  69.1097310  62.0969858  23.9958440  68.3517695
  61.9272700  24.9739025  69.4943906  46.1707439  52.9093830  69.3930657
  46.8589578  53.5570727  69.5450247  46.6391459  52.1241986  69.1096632
  19.4191053  54.6232040  13.0322896  20.1470329  54.8098401  12.4393981
  19.1153135  55.4850180  13.3172790  50.2223074  58.4627873   5.6927311
  49.4280461  58.6822832   5.2056967  50.4830385  57.6069156   5.3525329
  45.2887354  23.5590485  10.1743534  46.2261628  23.7019705  10.3048718
  45.0310297  24.2262096   9.5381807  69.6891840   2.7287807   7.2672906
  70.5954222   2.9173175   7.0235325  69.7597782   2.0864808   7.9734769
  42.5191691  69.4485051  33.1400354  41.7068339  69.6201252  32.6637058
  42.7403726  70.2866198  33.5460705  55.2588161  27.1917438  38.2191234
  55.0419871  26.4587668  37.6429622  54.5760641  27.8405777  38.0485475
  73.6473673  44.4972372  67.7474008  73.4403270  44.4462731  66.8142508
  74.5831898  44.3020569  67.7961119   4.0789591   5.5088408  39.9654678
   4.9800374   5.6763200  39.6893510   4.1649006   5.0872559  40.8205187
   8.7625683  57.5695863  59.8237724   8.4794907  58.4155316  60.1708681
   8.0864093  56.9551616  60.1092950  85.1536705  47.5986618  27.1191252
  84.3557740  47.0709901  27.1531178  85.3861431  47.7407264  28.0367340
  71.0505273  41.7110642  52.3073166  71.0966571  41.9857327  51.3915321
  70.4910056  40.9345002  52.2965634  83.5967249  40.2581521  42.6811496
  83.5473858  40.8772413  43.4095218  82.6844371  40.0414660  42.4887699
   0.6753578  48.6008889  20.4004925   1.0550317  48.6789050  21.2757028
   0.2103520  49.4267745  20.2666476  86.1195646  56.9043135  48.7717444
  85.3174908  57.3658905  48.5270894  85.9755661  56.0035948  48.4815685
  33.5207719  23.8205405  71.7591915  32.8693344  24.2854444  72.2842871
  34.2893047  23.7630904  72.3268963  34.2556391  27.5214622  73.2117155
  34.6360249  26.6470836  73.1280461  33.7295803  27.4783955  74.0102387
  39.8309647   4.3734876  14.8358224  39.7343248   5.0293094  15.5263225
  40.2368397   4.8477456  14.1101663  41.8178004   2.2054061  77.9785272
  41.1676911   2.5764035  78.5751433  42.4417732   2.9163524  77.8320857
   6.3211406  11.1301109  36.5002416   5.8649989  10.3248884  36.7447476
   6.5098981  11.0247556  35.5677703  70.0747548   3.2063519  42.3585977
  70.1765209   3.2837070  43.3072239  69.9812246   2.2664264  42.2036006
   1.1606794  17.7872937  68.1948141   1.8035568  17.1186419  68.4311299
   1.5689945  18.2683512  67.4750264  68.2293799  50.9860942   2.5759305
  67.5348317  50.8701712   3.2243104  68.9067497  51.4813583   3.0364905
  55.1496524  16.2135069  10.4599980  55.1582870  16.6969517  11.2860963
  55.7072823  15.4525557  10.6219670  59.3587353  71.8966398  34.6944744
  59.1923059  71.2496782  35.3800207  58.9412211  71.5316763  33.9142723
  16.2210771  65.9588797  57.3015436  16.1190524  65.6427327  56.4038388
  16.0962270  65.1809325  57.8450899  52.0939149  15.9091816  44.0924022
  51.3954153  16.2346221  44.6602214  51.7606480  15.0776044  43.7552905
  57.2900800  37.2357403   3.0468088  57.1146488  36.4799287   2.4862693
  56.5264692  37.2901642   3.6214117  44.9674766  41.9987266  69.5573370
  45.4694867  42.0538964  70.3704631  44.0535060  41.9785120  69.8410286
  70.0103035   1.1738686  74.0401251  70.3795502   1.4882541  73.2148673
  70.1348626   1.9006024  74.6505141  65.8082513  40.9583639  68.6014301
  66.1472654  40.2980544  67.9970357  65.7651630  41.7602494  68.0805128
  35.6439086  30.6702756  17.1965933  35.5766341  29.7378979  17.4024518
  35.5007631  31.1113723  18.0339551  22.1122913  62.8206236  50.3659976
  22.3593732  63.2128679  51.2034501  21.1559867  62.8606942  50.3556178
   6.5263751  45.5932480  50.3695885   6.7538058  46.3659789  50.8866901
   5.8610591  45.9034541  49.7552932  50.0203527  45.9971172  34.0937905
  50.3395221  45.1924073  34.5022077  49.4204523  45.6974180  33.4107592
  17.2598603   5.1073784  11.5294520  16.8074042   5.8778698  11.8727569
  16.5591889   4.5469919  11.1958979  57.8207450  67.9096576  80.5395984
  57.0852318  68.0216772  79.9373495  58.2848696  67.1399981  80.2102894
  20.2785733  28.5370022  83.5170093  20.6811243  27.7960839  83.9700265
  20.4628483  28.3802889  82.5908800  39.4822842  30.3331097  74.3737701
  38.5780899  30.2184209  74.6661930  39.6537863  31.2680199  74.4867378
  59.6653680  43.8780066  52.8984370  59.9506490  44.6679204  53.3576567
  59.0858500  44.1987870  52.2074300  23.3276930  35.1027138  82.9769292
  22.9716463  34.3061813  83.3706276  22.7019748  35.3303369  82.2892546
  59.0866202  33.5450849  10.2815314  58.4186022  33.6405705  10.9604028
  59.4094410  32.6501991  10.3873514  56.8839755  18.3166259  16.7220612
  57.4222320  18.2713342  17.5122894  57.1303804  19.1455098  16.3116126
   6.3560785  30.0652736  81.4532553   6.9139866  30.5080496  80.8137869
   6.8091649  30.1825024  82.2882415  63.1649852  64.7073539  52.5977662
  62.6591927  64.1135630  53.1525799  63.7892267  64.1395482  52.1459355
  25.5052672  10.9931938  85.3381733  25.5127202  10.0726619  85.6004657
  24.9102271  11.0239716  84.5890326  70.4820638  23.2314268  50.0062375
  70.7548379  24.0232208  50.4697982  70.1704720  23.5460534  49.1576195
  80.9825763  41.9317952  81.4062425  81.7335370  42.1706667  81.9495935
  81.1400830  42.3741662  80.5721374  75.2661231  34.4834460  44.7603483
  75.2061945  34.2673753  45.6909147  76.0814655  34.0736616  44.4713408
  44.7834295  49.3219024  72.9787385  44.0025220  49.8211325  72.7396052
  45.4381184  49.5750152  72.3279327  18.6069547  52.0392222  13.9591734
  17.7274433  52.3910839  14.0965957  19.1115609  52.7800916  13.6234398
  81.7911528  45.3359850  65.6638607  82.0223776  46.0094125  65.0241245
  82.1682566  44.5303127  65.3104252  19.9862162  49.2734949  73.0137376
  19.8427654  49.9680078  72.3708492  20.9254077  49.0945741  72.9674933
  32.7397442  49.5560221  83.8461954  33.1443506  50.0983031  84.5232897
  33.3496809  48.8281642  83.7260622  50.9673805  48.0538303  87.2386352
  50.1409746  48.2521343  87.6790448  50.7533174  47.3401504  86.6377443
  73.6825954  70.0135316  46.3604705  74.4234582  69.6881465  45.8491207
  72.9104531  69.7205176  45.8765584  48.7231974  23.1776164  68.1536497
  49.5768585  23.2344501  67.7243893  48.4763973  22.2561373  68.0749235
  77.3358731  26.1930800  29.1770942  77.1918264  26.8661934  29.8422263
  77.5841550  26.6813061  28.3920953  41.5930407  52.8632817  59.3049649
  42.2662011  52.5959402  59.9307568  40.7782737  52.8444139  59.8069914
  58.3890009  24.7449858   9.3731519  59.2263413  25.0413236   9.7299107
  58.1160422  24.0382771   9.9582060  86.4701631  24.8406177  53.6899013
  87.3848121  24.5885564  53.5629598  86.2893001  25.4529952  52.9767995
  35.8568109  44.7314741   7.1121658  36.1258774  43.9648614   6.6060630
  36.6641451  45.2296203   7.2398119  21.0741792  26.2392148  20.7663315
  21.0733628  25.5981415  21.4771452  21.2444541  25.7230133  19.9784392
   6.0844810  67.7060846   2.9223056   6.4761720  66.8838386   2.6278205
   6.7619317  68.3638451   2.7653234  30.2531247  39.3845198  70.3220403
  30.5788093  40.2791418  70.4210994  31.0424363  38.8435480  70.2981960
  74.4259873   5.6571163  39.2774780  74.9228803   5.7489091  38.4645184
  74.6281496   4.7728700  39.5832080   8.7161560  45.8318227  43.8562736
   8.7401051  46.7707931  43.6719017   8.3541063  45.7704658  44.7402347
  19.6925590  42.1883740  55.2533397  20.5913819  42.4932414  55.1292223
  19.7111423  41.2708329  54.9813013  77.8437133  20.9785622  63.5183519
  78.1164346  21.8052475  63.1202987  78.5155946  20.3511446  63.2516041
  28.1896141  42.5913371  29.9794652  27.5344280  43.0615930  29.4638854
  28.1850607  41.7039799  29.6205663  56.7902395  56.8411998  31.6304610
  56.3994121  57.5921236  32.0772263  57.2759673  56.3813301  32.3151654
  84.1992984  41.5643087  28.9746274  84.4412482  42.4704301  29.1660330
  83.4403698  41.3959673  29.5331258  83.3672758  64.7092797  41.5224554
  82.9203439  65.3166632  40.9329055  82.9638390  64.8640087  42.3765804
   7.6555188  37.4331684  11.8749624   7.0069558  36.7936924  12.1693574
   7.4079775  37.6264720  10.9707562  48.8477961  39.1530752  88.3807036
  49.2239554  38.2789948  88.4842386  48.6697889  39.4446709  89.2748608
  14.5667341  58.5414665  79.4158168  15.1420750  57.7949686  79.5830163
  14.4114715  58.9224930  80.2800761  57.7009518  45.5888293  37.6314735
  57.7438553  45.1792085  36.7674122  56.8989935  46.1109504  37.6094636
  16.7580393  46.6499186  54.1801789  16.7126231  45.8417605  54.6911092
  15.9431430  46.6620079  53.6781533   2.5252228  20.2318712  84.4392837
   2.3617578  19.7563487  85.2537709   2.0202420  19.7569825  83.7792027
  17.5692469  32.5136950  24.1236240  17.7159563  33.3110830  24.6324271
  17.4597735  31.8267541  24.7811645  34.5308241  35.1611893  14.1542467
  35.2412954  35.1989163  14.7945896  34.4237352  34.2280105  13.9700157
  77.0701333  59.1292138  65.4009033  77.2257189  58.9078940  64.4827298
  77.8777509  58.8766360  65.8483294  81.2112077  61.3006693   8.9203032
  80.4051159  61.0853836   9.3894513  81.8328062  60.6242815   9.1892765
  71.9751513  36.8258514   5.9545098  72.7396382  37.3864888   5.8223077
  71.2261998  37.4081166   5.8269532  34.9182085  49.1107666  55.4894984
  34.5010079  48.6930850  54.7360281  35.2399885  48.3817094  56.0197484
  52.9530668  69.4715445  34.9850386  53.1840534  68.8738140  35.6960908
  53.4018467  70.2883254  35.2034361  13.5179800  65.4593573  63.1410277
  13.1709477  64.6138209  63.4254018  14.3460313  65.5492791  63.6127023
  16.5494015  11.0464221  66.0780400  16.6717298  11.9438117  65.7682668
  15.7251857  10.7659794  65.6802309  57.0142488  55.4632115  66.2973523
  56.1581485  55.0352826  66.3115335  56.8266676  56.3807790  66.4951271
  79.1157865  62.9069042  81.8560677  79.3794170  63.2906808  81.0197386
  79.8868316  62.9993819  82.4156829  48.4292946   6.8671737  13.5817820
  49.1192951   6.2162440  13.4536350  48.8637072   7.5910537  14.0329087
  78.6706633  51.1558694  72.3612148  79.2920556  50.4397145  72.4924613
  77.8286884  50.7208179  72.2269008  71.2384213  32.0367483  78.2249438
  71.4364049  32.6662744  78.9182916  70.8855917  31.2757223  78.6860106
  63.0405099  55.4424078  73.2353820  63.5471902  56.1144425  73.6913166
  62.1334471  55.7411923  73.3001648   8.9986060   0.2064746  29.8454790
   8.2064149   0.1913251  29.3084170   8.8616665   0.9326597  30.4538660
  81.7424078  47.8372692  20.1919739  80.8589364  47.7957355  20.5580136
  81.9453513  48.7722133  20.1615558  70.0244591  33.1431449  24.5106848
  70.1169721  33.9764229  24.9725516  70.0850516  32.4801067  25.1983916
  81.9910566  42.0150607  58.1275172  82.1596519  41.1044153  57.8855827
  82.3985013  42.1136316  58.9880429  30.2619723  68.5511216  32.4951594
  30.2112271  67.6041985  32.6255183  29.3624033  68.8147853  32.3015390
  77.0770975  34.4041079   3.4926318  77.5188759  34.1451498   2.6839264
  76.6155806  35.2113572   3.2655142  13.5535131  27.8132966  23.7697512
  13.0468726  27.7567237  24.5799035  14.4644722  27.7257941  24.0503377
  79.4619644   6.0829949  18.6333422  80.0766253   6.5029325  19.2350700
  80.0015912   5.4802145  18.1217853  58.8355282  30.2824545  57.4288472
  59.6349762  29.8684489  57.1037102  58.9903179  31.2207426  57.3198175
  65.1623211   2.9987876  30.6299708  65.8790592   2.4034943  30.4105527
  64.9571908   3.4406361  29.8060029  28.3024767  36.3971218   5.6229556
  28.2884789  36.7385095   4.7288134  27.9909014  35.4958494   5.5401262
  12.5179410  70.5404607  30.7501699  12.1537245  70.9770576  31.5202097
  13.4242710  70.3478166  30.9903491  32.4665533  57.9822070  62.6901667
  32.9270109  57.5628896  61.9632667  32.2498730  58.8557863  62.3643744
  31.9070371  71.0631102  86.3363763  32.2972745  70.7635638  85.5152682
  32.6552161  71.2403440  86.9065063  84.7378690  33.3895152  39.4581454
  84.5978301  32.9982076  38.5958814  85.6890108  33.3990034  39.5652484
  15.3733486  60.4031006  77.7378780  15.4484114  59.7377568  78.4219213
  14.8260505  61.0854911  78.1265163  25.0125799  53.3500373  34.9987323
  24.7379999  53.9740247  34.3268116  24.7766116  52.4939749  34.6413698
  41.2723008  54.7110396  81.1244007  41.5964727  55.5623501  81.4183646
  41.7794230  54.0745985  81.6283865  71.6276047  14.9314192  83.1996198
  70.7925337  14.7147982  83.6143047  72.0764123  15.4842193  83.8393195
  63.5571256  28.2803952  36.3321295  62.7539194  28.2805215  35.8114649
  63.8255186  27.3619630  36.3581917   0.3254275  68.7166094  72.7510433
   0.1885754  68.0541596  73.4282904  -0.4483198  69.2775473  72.8048547
  55.6504899  61.3653409  37.1675381  56.3043240  60.7072067  37.4033180
  54.8416385  61.0563014  37.5755648  29.3719329  62.6409069  68.0143786
  28.8347325  63.0542652  68.6902355  30.1736642  63.1633967  67.9928566
   3.5697325  57.9152767  79.0745294   4.2238882  57.2285023  79.2035764
   2.9700951  57.5551586  78.4210910   5.0999936   1.8085799  32.6581934
   5.0687684   2.5115414  33.3071170   4.1820568   1.6312786  32.4527958
   5.4044527  36.1688558  27.4314929   6.0649877  35.9480942  26.7748425
   4.8472397  35.3921510  27.4812432  33.1536296  -0.2101117  44.8166343
  33.4715253   0.5534722  44.3348524  32.6583999   0.1576376  45.5485768
  44.1269576  70.4165275   3.6275622  44.9787542  70.1373488   3.2918037
  44.0268890  71.3140382   3.3102410  47.3314744  50.9530576  68.2033857
  48.2287224  50.6688586  68.0290045  46.7891777  50.2099859  67.9388285
   8.7509443  31.4083579  57.7218964   8.5241384  31.4570998  56.7932333
   8.3996463  30.5659713  58.0103516  31.7275298  44.6644454  64.0786475
  31.3156809  44.8334187  64.9260318  32.3721840  45.3653340  63.9816525
  47.4973293  58.9095329  87.6952582  46.8021227  58.3309682  88.0085991
  47.5962018  59.5623276  88.3883058  21.1805395  58.1604748  50.3362363
  21.8773821  58.7209394  49.9948836  20.3976927  58.7107997  50.3133197
  56.8685195  40.9484563  47.1465418  56.6988734  41.7088085  46.5903794
  57.7215730  40.6252134  46.8566356  43.1272148  47.3118335  51.2573233
  43.1138057  46.7326985  50.4953163  42.2081062  47.3944339  51.5115838
  60.6037601  13.8324337  78.2410213  61.3942807  13.3011527  78.1458919
  60.3128773  13.9919096  77.3431424  71.5545983  69.0577896   4.3809380
  72.0338207  68.5970136   3.6922702  72.2194517  69.5853728   4.8234961
  15.7527333  67.0076185   7.2365700  15.4058376  67.8192992   7.6067993
  15.3572851  66.9529822   6.3665887  83.7742834  67.8249959  50.6690785
  84.3206099  67.3431692  51.2900473  83.9221632  68.7458841  50.8843185
  39.7770841   0.1418145   0.1060696  40.5387178   0.7007759   0.2600437
  39.4334369  -0.0409806   0.9805549  52.5902184   0.7168454  28.2044792
  52.7325591   1.5851968  28.5812241  52.0846509   0.2477254  28.8682259
   4.5964217  65.1292361  21.5166790   4.2231529  65.0476691  20.6390406
   3.8989734  65.5273672  22.0375335  20.3283733  38.8470923  82.5958568
  19.5805512  38.8596559  83.1932144  20.8559276  38.1037944  82.8881349
  17.9847107  50.0483977  86.4794266  17.2585647  50.3555623  85.9366616
  18.4056466  50.8492747  86.7919020   2.6589846  11.2187455  76.8755648
   2.4451023  11.9944851  76.3571881   2.9110564  10.5601714  76.2282845
   5.1728647  32.9706774  51.5045938   5.6383295  33.7379477  51.8375664
   5.3149552  32.2970663  52.1696429  63.0811544  46.9248524  59.9177010
  62.2116002  47.3040459  60.0454493  62.9924023  46.0179738  60.2108326
  11.4832473  21.8050624  88.6573977  11.2466954  22.7183939  88.8189549
  11.7700914  21.4775492  89.5098573  52.6751186  54.7589504  14.8271994
  53.2180893  53.9993927  15.0381183  51.8219205  54.3882480  14.6016676
  41.3215824  50.0179875  45.3659249  42.0561084  49.4052666  45.3301967
  41.6425380  50.7458734  45.8982795  66.1542063  27.2548816  43.6750143
  66.9532692  27.4847611  43.2007931  66.0148604  27.9853156  44.2777421
  67.9111136  60.6059734   5.0869139  67.5939225  60.9779085   5.9098878
  68.0668549  61.3652359   4.5252227  78.7829100  53.9081810  40.3632754
  78.9718951  54.1579667  41.2677773  77.9617469  53.4192035  40.4164168
   2.1117949  65.7987837  14.5032629   2.0212004  66.7140876  14.2382287
   3.0567556  65.6605306  14.5678161  64.3475218  27.5117969  29.1253658
  64.8070526  26.9066122  29.7074438  63.8148794  26.9473148  28.5651125
  33.1371849  35.2441630  11.2913885  32.6160867  34.7719978  11.9408102
  33.5395146  35.9607385  11.7821861  50.6379400  53.4859038  83.5289370
  49.9733002  53.2318199  84.1691925  51.2650094  52.7627294  83.5348217
  34.2732805  54.2561179  33.4858053  33.5810566  54.5532635  34.0763664
  33.8115007  53.7787864  32.7964970  82.8898400  46.6348075  54.9437796
  82.8378036  46.4295814  54.0102881  82.2126857  46.0912836  55.3466141
  41.7491688  60.6570132  60.4615836  40.9393540  60.4929062  59.9783645
  41.4780338  60.6907468  61.3789601  51.0146628  47.1395798  46.6767450
  50.7828492  46.2984375  47.0704124  51.4028734  47.6407900  47.3939009
   5.2337205  39.1240957  79.4640257   5.8339399  39.2748396  80.1942617
   5.5643852  38.3311507  79.0419699  41.6607451  60.0228445  64.6731337
  40.8025476  59.8870883  64.2715131  42.0182470  59.1411363  64.7780855
  72.9328336  32.3902415  67.0908960  72.8365474  33.2626781  66.7090385
  73.3547196  32.5440178  67.9362344  59.1808236  19.9212054  32.0546485
  59.4255513  19.4133332  31.2810814  59.3677804  19.3399199  32.7917958
  62.1904581  35.4223159  66.4005376  62.6383838  35.2869722  67.2355684
  61.6992177  36.2349375  66.5212060  53.2073498  64.0502677  52.8503027
  52.5584020  63.4886002  53.2741284  53.3409995  64.7696823  53.4674027
  42.3652073  65.4591037  28.1631522  42.3646429  64.5887866  28.5616237
  42.0665239  65.3118459  27.2657475  85.9558272  63.9326630  30.7138351
  86.0995912  63.1116132  31.1844102  85.4740413  63.6767449  29.9273110
  30.6556719  46.2913111  23.3997189  30.5281175  45.8708828  24.2501317
  31.5086104  46.7200150  23.4700079  66.5939133  38.9976422  86.9880950
  66.5467429  38.7666729  86.0603774  67.3896132  39.5243176  87.0636366
  71.4293685  23.4071832  78.4957982  70.7347910  23.4326354  79.1539366
  72.0457613  22.7521774  78.8233026  65.5345658  45.5522777  24.0961600
  66.2827084  45.8421264  23.5741426  65.6790548  44.6144068  24.2216701
   6.2613258  54.0587771  13.9115000   5.9958503  54.8638573  14.3560227
   6.8580607  53.6315037  14.5259728   7.7186661  45.3391660  62.4273339
   8.4158276  45.5706634  61.8136510   6.9094112  45.4966031  61.9409680
  27.9927467  31.9936527   2.8799978  28.6357210  31.9644934   2.1715024
  27.1889241  32.3017034   2.4614218  83.3239622  36.2028675  66.2738296
  84.0577816  35.7814413  65.8264586  83.6720195  37.0465360  66.5624667
  80.7218166  28.7433127  11.2665039  81.1150667  28.3282945  10.4988151
  81.1778171  28.3507571  12.0109470  72.1093066  46.2529262  37.8627199
  72.1980001  45.4872554  37.2951694  71.3395171  46.0651200  38.3997347
   5.4464075  58.3688551  17.4493415   6.3423455  58.3863820  17.7858228
   4.9392370  57.9432008  18.1405929  48.5981499  44.7962238  37.2099333
  47.8247731  44.8810693  37.7675366  48.8279663  45.6966592  36.9805159
  11.4573369  50.1089324  41.5877457  11.8461371  50.8196204  41.0778549
  11.6462636  50.3361875  42.4981817  80.3967755  29.8469428  37.7031042
  80.8400313  29.1691138  37.1929043  80.9486397  30.6224306  37.6016334
  11.7089675  60.3959189  72.4232316  11.5919591  61.0234303  73.1365130
  10.8184456  60.1644979  72.1593246  44.1690030   3.2065808  72.6687885
  43.4075234   2.7239297  72.9903917  43.8094848   3.8249760  72.0327337
  37.2038168  60.0045908  19.5232372  36.5422350  59.3271585  19.3831415
  36.9424740  60.7185184  18.9416540  42.7077037  58.9579572  47.9520093
  41.9442337  59.4132074  47.5969139  43.4367376  59.5597483  47.8017133
   1.5004243  17.2102954  52.8087689   2.2985445  17.3733824  52.3061372
   0.7965411  17.5543031  52.2588243  58.3726780  44.0682293  65.2205552
  58.4870878  43.1431230  65.4380883  59.1978373  44.3206897  64.8062996
  40.3896628   2.7159109  83.8392212  40.2873738   1.8177873  83.5243517
  39.5591316   2.9140917  84.2718575  28.8322935  17.7870769  75.0716659
  28.6906184  16.8618885  75.2721316  28.5197664  17.8879193  74.1725611
  64.3100859  31.2060935  68.4902387  64.6669907  30.8426478  69.3006447
  64.2921868  32.1514625  68.6391985  55.2104608  45.6286061  46.3054181
  55.0344263  46.4134923  46.8242604  54.9308133  45.8593902  45.4195468
  74.1489699  56.6845051  12.3428101  74.0766463  55.7919805  12.0045779
  75.0888815  56.8656045  12.3417671   0.7772510  13.3661192  42.4052807
   1.1163860  12.5112100  42.1400457   1.5561475  13.9149587  42.4965348
  82.0726696  26.0146548  82.5936124  81.8815974  25.5501670  83.4084586
  83.0262282  26.0973925  82.5830197   9.7984515  25.9351017  77.4222537
   9.0694003  25.4584686  77.8191631  10.0063049  25.4388887  76.6305458
  73.7665325  37.9100878  89.0485695  74.6847576  38.1776680  89.0098986
  73.4021763  38.1818745  88.2061870  85.7382455  48.9824449  14.7688487
  86.2610651  48.3577854  14.2661639  86.2116138  49.8104925  14.6882796
  35.3150259  57.9801961  43.8982838  35.6609030  58.7351134  44.3744148
  34.3756042  57.9913153  44.0815734  56.4562027  52.9964511  86.0202635
  56.7612841  52.3723226  85.3617646  57.0864362  52.9164321  86.7362485
  58.7639275   4.6672825  47.8764076  57.9273112   4.2292114  47.7202069
  58.5633477   5.3426319  48.5244066  17.6754107  54.3585535  48.1642277
  18.0669971  53.8020403  48.8374180  18.3745333  54.9640296  47.9175336
  16.7015655  25.5914947  58.8764945  16.5491467  26.3906674  58.3721898
  15.8290143  25.3148397  59.1564021  23.4717558  26.3841898  84.2639958
  24.3142532  26.8301494  84.1771051  23.1042900  26.7233420  85.0801921
  33.7327366   2.7118421  79.4808159  33.9308926   1.8343953  79.8080055
  34.2159647   2.7750486  78.6569667  81.0346199  65.5194890  74.1376459
  81.3495149  65.9757540  74.9179633  80.8032464  66.2199242  73.5276552
  31.7248923  66.7940968  76.4837729  31.0041378  67.4124336  76.6037909
  31.7820368  66.3280358  77.3178913  31.2762686  67.5745009  87.3449350
  30.6353373  67.2352514  86.7201562  31.9217994  68.0284129  86.8031918
  57.7309758  10.4422159  26.5622036  57.7144517  10.9339524  25.7411348
  57.1555677   9.6936640  26.4046997  58.6689783   6.1314326  39.0104009
  58.9061723   6.0179055  38.0900300  59.4266327   6.5668477  39.4010481
  85.7095424  22.8622179  19.2897059  85.9790184  22.0862444  19.7811118
  86.3993511  22.9841133  18.6373737  52.6045670  11.2445990  25.4982605
  52.5326167  11.0769600  26.4379159  51.6992297  11.3364308  25.2013375
  44.8884485  48.1909728  16.9437086  45.0894024  48.2174661  17.8792018
  44.2509785  47.4823769  16.8556422  49.1327017  22.0684268   1.6387849
  48.9553262  21.2531669   2.1079556  49.3449160  22.6993260   2.3266535
  10.8867639  13.8351694  14.3910520  10.2840023  14.5737079  14.4774876
  10.4415730  13.1100798  14.8295517  85.2965416   8.9006574  18.9993748
  85.9810181   9.4311464  19.4071802  85.0464505   9.3924665  18.2171919
  62.9477874  58.9728808  67.2576877  63.6389244  59.4113871  66.7614280
  62.2286228  58.8769498  66.6333230  73.0462789  69.7877334  16.7388560
  72.1310355  70.0146970  16.9033213  73.3902240  70.5274508  16.2381048
  62.4161782  51.4987391  71.4812649  62.7336242  51.8316760  70.6418526
  61.5042575  51.7865481  71.5236723  29.8393270  18.7173004   3.9940071
  29.0795111  19.1569958   3.6124582  30.0183667  17.9890792   3.3991369
  79.6279152  37.6156122  19.4936791  80.5287894  37.5860235  19.1715268
  79.0956524  37.3596616  18.7404080  72.4863146  29.0962103  20.1388891
  73.3311187  29.0350122  20.5847508  72.1106872  28.2191791  20.2160393
  85.9894026   0.8408716  35.8797126  86.5405727   0.2867665  35.3270727
  86.5569446   1.0925236  36.6082722  52.3263954  30.3179796  25.3265881
  51.4757581  30.2679321  24.8905339  52.3248315  29.5829636  25.9397610
  10.8516426  54.7201738  10.3274732  10.1104853  54.2441360   9.9528992
  10.4522507  55.4442642  10.8095634  36.8187140  31.8950091   3.3877089
  36.7121592  30.9843131   3.6625011  36.6118392  31.8889643   2.4531512
  85.0746957  53.9939297   2.6760582  84.7298086  53.5472024   3.4491814
  85.9461244  53.6181213   2.5511104  67.8834962  26.5570545  20.9711027
  67.6228781  25.8897316  21.6059178  67.6384814  26.1887810  20.1222363
  47.2874813  54.0918672  46.2790503  47.0560080  53.3005968  46.7654073
  46.9639628  53.9313792  45.3925904  66.4608615  36.9415605  44.1564182
  67.3100852  36.5467037  43.9585823  66.0215834  36.2985448  44.7130127
  20.0686737  45.0123303  71.0636010  20.6921675  44.5583685  71.6305279
  19.5612097  45.5639082  71.6589782  79.0732334  42.4604774  56.7992524
  78.8727445  41.9651595  56.0050886  78.2320761  42.8273213  57.0714872
  75.6887712  46.3912979  41.3187591  75.6680242  45.4487513  41.1532075
  75.5715285  46.4708404  42.2654159  60.6141686  44.8327607  63.6065392
  60.1331721  44.7801226  62.7806436  61.1623862  44.0481461  63.6148581
  68.2169292  61.7522177  42.8830146  68.8248881  62.2771592  42.3623860
  68.7601172  61.0598280  43.2595450  31.8543433  30.8340743   7.9853172
  32.0334629  31.5459635   8.5996151  31.2831257  31.2258394   7.3246642
  71.2885633  10.5628942  29.0014310  70.7846947  10.0117064  29.6002134
  72.1973705  10.2941831  29.1359515  49.6693280  17.2089194  45.3966882
  49.8736887  18.0869261  45.0748611  49.1077422  17.3573813  46.1574853
  69.3755414  35.8972255  24.7688436  69.1970807  36.8030227  24.5160292
  68.7244201  35.3827010  24.2918348  72.2214424  26.1330449  20.0231352
  72.0702306  25.5715737  20.7834752  73.1687548  26.1044817  19.8889146
   0.7036908  58.8055363  68.5809545  -0.1794311  59.0030611  68.2690065
   0.5869569  58.5807738  69.5040400  76.7544968  33.7588404  78.3680083
  76.0453223  33.1193149  78.3023531  76.9894686  33.9499825  77.4599969
  45.4447946  70.5947902  40.6474332  44.7500423  70.0040912  40.3565283
  46.2315470  70.2750479  40.2058255  77.1338159  15.9642451  51.4803221
  77.9393405  16.2337798  51.0390591  77.0969851  16.5098688  52.2659239
  10.7595214  12.7885356  18.9488906  10.5976593  13.6904995  18.6723156
  10.1699706  12.6562036  19.6912854   2.0279019  50.7182050  80.2457643
   1.1954611  51.1660423  80.0950466   1.8136632  49.7873232  80.1841792
  80.1942631  36.5734121  77.6769353  79.8728713  36.9802638  76.8723168
  80.6211446  37.2864447  78.1518969  19.9360818  40.5949533  85.1540284
  19.6390189  41.3058200  84.5860019  19.2001989  39.9832488  85.1769566
  57.4416744  58.9423192   6.2207927  57.7199534  58.6971336   7.1032192
  56.5256606  58.6685647   6.1737928  71.0175847  43.7497566  29.7932171
  70.7359214  43.1207305  29.1289703  71.0169395  43.2514738  30.6104965
  64.0506160  55.9619582  24.2229654  64.9109155  56.1786436  23.8635714
  63.4512205  56.5729785  23.7944668  19.3843763  31.1758267  74.9191059
  19.4244763  31.1398184  73.9634244  18.4516420  31.1060200  75.1224913
  62.1384570   8.5547863  14.0776753  62.8025931   8.2869262  14.7128178
  62.4952278   9.3481312  13.6782380  26.0680877  66.3822664  70.9280724
  26.0034653  65.4414330  71.0920490  25.4211429  66.5509931  70.2430720
  85.6548815  60.2219919  23.6093892  86.4107428  60.6209881  24.0403271
  84.8980750  60.5796466  24.0736724  56.8178176   4.1771258  27.1480276
  57.7151068   3.8778505  27.0012686  56.3929013   4.0874972  26.2950066
  68.2099191  69.2013859  60.3814005  69.0703893  69.0419741  60.7692286
  68.3067715  68.9367819  59.4666130  50.1724253   0.4025615  42.9929205
  50.2889205   0.8263255  42.1425766  50.7395537  -0.3676737  42.9563828
  43.6252758  61.6962326  18.3464927  44.3179136  62.1716902  18.8052137
  42.8123246  62.0555041  18.7018322  76.5762558  33.5498778  21.9791206
  75.7747385  33.0324978  21.9008922  76.8318451  33.4582563  22.8970048
  17.5238336  70.8147407  45.0185657  18.3380035  71.1863991  44.6791113
  17.2364808  70.2059031  44.3381416   2.6704172  68.4649808  62.4866035
   2.5929367  68.7563851  63.3950704   3.1437385  69.1718797  62.0478635
  81.5238046  20.5923072  70.7812503  82.0220376  20.9329089  71.5242080
  82.1891975  20.3536865  70.1358478   2.1164345  41.5047374  43.2880445
   2.9511855  41.0688611  43.1164796   2.2800444  42.4250965  43.0821252
   1.9760962  23.0792751  80.6202869   2.7897924  22.6681698  80.9120451
   2.2411307  23.6491546  79.8983271  28.6917445  40.2994275  22.8876551
  28.7948441  39.3478108  22.8929329  28.8868205  40.5564813  21.9864889
  85.1953898  23.4722388  79.9217640  85.7076465  24.1404440  79.4664326
  85.1195528  23.7983372  80.8185028  67.2753951  70.2467667  83.1367790
  66.7777096  69.4298459  83.1711516  67.6390512  70.2686159  82.2516187
  29.9161013  36.8907274  89.2522193  30.2605935  37.5942239  88.7020832
  30.6354153  36.2624286  89.3159357  74.8986116  26.9144718  73.8951959
  75.0749120  25.9736492  73.8935179  75.7411403  27.3156539  74.1083392
   4.0339299  17.8555739  74.0260865   3.2693459  18.4187650  73.9058411
   4.7348289  18.2977651  73.5470882  14.3962115  65.1294679  24.6339104
  13.8034661  65.8808296  24.6523604  14.7774738  65.1466721  23.7560865
  65.9219989  45.1724822   3.6903525  65.7394435  45.7919486   2.9838352
  66.5774920  45.6126885   4.2314432  35.7719081  56.9750677  17.1782180
  35.8390029  57.1166251  18.1225122  36.5301480  56.4319521  16.9629751
  56.4189271   1.0635544  37.5918830  56.3505725   0.1879492  37.9725074
  56.2327691   1.6564122  38.3199604  40.7069493  63.2875324   8.8564974
  40.1662179  64.0600154   8.6918420  40.1249514  62.5469897   8.6858901
  63.4188117  50.5976154  58.5348784  64.1656797  50.5068805  59.1266447
  63.6524812  50.0694327  57.7715610  25.5808696  48.7199793  66.1481303
  25.1580823  47.8778986  66.3166027  26.3483478  48.5011645  65.6196144
  56.8569345  67.0530433  35.7184075  56.4415488  67.4776701  36.4689930
  56.4496257  67.4632601  34.9554831  57.8242652   2.9670324   6.8357153
  57.4570320   3.1977188   7.6890356  58.2175803   3.7793007   6.5167243
  75.6423298   8.1171584  85.5643423  74.9225309   7.4936288  85.6609456
  75.6906386   8.5603084  86.4114055  81.7252227  12.7772201  26.1342035
  81.3543814  13.6181138  25.8666098  81.4668583  12.6823826  27.0509835
  33.1163530  -0.1783204  56.5913717  32.9422588   0.6110056  57.1040974
  34.0674635  -0.2807731  56.6248998  62.2592817  46.6147179  76.9703693
  63.1983812  46.6775127  77.1446701  62.1868114  46.6888560  76.0188004
  17.9547945   5.7389979  20.3486280  17.8699235   5.6443860  19.3999039
  17.0921746   5.5044537  20.6908379  85.0404997  23.4317942  30.2212958
  84.2295146  23.4899651  30.7264207  85.7198152  23.2720790  30.8764701
  69.3314473  59.5758063  84.4938773  70.2654210  59.3662294  84.4922741
  69.1924898  60.0441705  85.3170162  65.3191112  26.1129478  66.6232597
  65.9247398  25.9852900  65.8930890  64.5062269  25.6973218  66.3356730
  19.7179179  69.7607470  77.0824160  19.4550793  69.8139886  76.1635510
  19.8815412  70.6686445  77.3377224  19.8326263  69.1600281  56.1174757
  19.6905692  69.0291254  57.0549809  20.5726229  68.5910364  55.9056140
  10.9805934  37.9505038  86.6601688  11.6500907  37.5944584  87.2443236
  10.6387834  38.7142791  87.1249753  58.4264995  30.9710965  60.7285044
  58.1281100  31.5250129  61.4498726  59.0370384  31.5228378  60.2395712
  65.5612067   6.3450281  13.8020366  65.7726045   6.9980572  14.4691916
  66.2347446   6.4606483  13.1318049  81.7850182  59.0312729  68.4492007
  81.7139039  58.2791711  69.0370080  81.9314927  59.7770380  69.0311041
  81.7636867  19.6369818  88.9844222  82.0565236  19.1408013  88.2200379
  82.2325008  19.2426593  89.7199186  55.2657607   3.0795487  39.1392985
  56.1481140   2.9677329  39.4931088  55.0609872   4.0017929  39.2934585
  72.6343336  11.5314709  58.2421435  72.2215912  11.0166782  57.5486999
  73.3190230  12.0294455  57.7955414  30.3048566  50.2842266  88.0372828
  29.3883943  50.3542421  87.7700253  30.2666873  50.0428527  88.9627630
  10.6517094  60.8736136  19.1538687  11.2970883  61.3054991  18.5942324
  11.1600788  60.5424604  19.8942268  63.9524617  70.7323728  52.2694781
  63.2307147  70.5134471  51.6800845  64.5126904  71.3145289  51.7561848
  68.0874972  52.9338389  81.9374322  68.1312630  53.7373376  82.4558011
  67.1771630  52.8864970  81.6454009  13.9527913  65.4816039  69.1575695
  13.3142611  66.0655233  69.5668971  13.6887680  64.6048044  69.4363997
  51.5478814  61.5517444  50.3131937  51.8385419  60.6981812  49.9919801
  51.1813105  61.9854800  49.5426542  77.9363678  28.8755772  11.6109677
  78.8835616  28.7630536  11.6909319  77.8249137  29.7899952  11.3508722
   6.6989740  18.3612353  84.5826179   5.8215135  18.0882808  84.8505558
   6.5769951  19.2396101  84.2223254  86.4134600  68.7460936  83.9633071
  85.7085073  68.4995421  83.3645702  86.4937121  68.0008389  84.5586110
  17.4873797  23.0463213  17.9518923  17.1201568  22.1665047  18.0373443
  18.3841244  22.9032150  17.6492353  23.7724447  40.6342889  39.2831310
  24.4691360  41.0904835  38.8111782  23.1757203  41.3295855  39.5601048
  42.2191749  58.1403183  33.9339234  43.1004614  58.4082450  34.1942716
  42.1498069  57.2308115  34.2241255  29.9532451   4.1836522  71.5831260
  30.6953713   4.7856868  71.6382165  29.7141961   4.0141327  72.4943617
  53.4539901  60.9876150  22.6747511  53.2234906  60.8175935  23.5880935
  53.0305938  61.8218405  22.4721797  33.5858864  57.4802588  87.4540682
  34.2673437  58.1013384  87.7111827  33.7895727  56.6843164  87.9452093
  36.1746606  57.6497055   4.7440946  37.0055657  57.3684877   5.1271679
  35.5157017  57.1059427   5.1757508  24.5580426  24.7491558  20.5849590
  24.6361662  25.3514984  19.8451536  23.6350430  24.7946517  20.8344255
  62.8682615  59.2701524  56.6288111  62.1092921  59.3998926  56.0601593
  63.4689136  58.7365124  56.1085446  57.4123572  56.8765520  36.6818077
  56.7687617  56.2862158  36.2899917  57.7872418  56.3754714  37.4061084
  51.1952102  35.8905475  36.7851432  50.6244825  36.1396286  37.5120961
  51.7211446  36.6719897  36.6149289  84.0988033  27.8435983  44.0436710
  84.8173131  27.2127570  43.9987851  84.3504463  28.5370330  43.4337071
  51.8757253  68.0092160  18.5673251  51.9341046  68.2320753  19.4963877
  52.3858151  67.2037906  18.4817089  23.9242721  13.0695396  73.4311691
  23.8943669  14.0162509  73.5692825  24.7573779  12.7975329  73.8161092
  77.0144185  53.9901404  10.4824130  76.0980051  54.1502517  10.2570626
  77.3231597  53.3811599   9.8115527  76.5049605  68.6974131  85.2259158
  75.7276145  69.0919314  84.8305423  76.3145898  68.6811681  86.1638534
  68.6913346  43.3854974  84.3691484  69.1973366  42.5784267  84.2751765
  68.6623732  43.5414942  85.3131072  58.0537752  54.4341513  45.0873764
  58.9059871  54.8696003  45.0686410  58.0962551  53.7939593  44.3770374
  71.1647571  27.6099055  15.5595996  71.1408343  27.9667735  14.6717343
  71.7416258  28.2031743  16.0407300  72.7928128  23.9654178  35.5682817
  72.2367571  24.5894732  36.0347457  73.6525088  24.0569932  35.9790961
  51.4242059  58.8442116  49.5906034  51.6577910  58.3887143  50.3994248
  51.0791686  58.1574510  49.0200414  43.1407153  46.3347690  57.8758853
  43.1942926  45.3819607  57.9501663  42.4798373  46.5884523  58.5201809
  80.7874738   7.0404066  65.3105020  80.2130859   7.6438660  65.7818268
  80.2254798   6.2974671  65.0904216  73.7996877  24.2743530  81.2505493
  74.0367279  23.6639750  80.5523498  74.2418756  25.0901954  81.0158094
   1.2371290  45.3747702  55.9999803   1.9146117  45.9069488  55.5828054
   0.4571533  45.5163553  55.4634886  59.9952322  54.2942765  11.0773797
  60.7154773  53.9106394  11.5776810  60.4047478  54.9899818  10.5630618
  65.0798284  26.7940060  20.0807416  64.2325377  27.0233705  20.4624774
  64.9258646  25.9579792  19.6407572  63.5049429  20.0976434  35.5686509
  63.4971195  19.7856119  36.4735304  63.8719280  19.3694530  35.0673600
  61.3791216  45.7385154   0.2697664  61.0846371  46.5866834   0.6016122
  60.9085782  45.6280975  -0.5564471  32.4047190  12.7721594   5.0363376
  32.7494116  11.8966653   5.2122039  32.8722886  13.0606599   4.2525150
  44.4819267  53.2699959   5.6380337  45.4086894  53.4947985   5.7205347
  44.0217495  53.9873748   6.0737359  14.1135350  56.9170966  12.2980863
  14.6664551  56.4190582  12.9001402  13.8731102  56.2881188  11.6177815
  33.6170253  59.3707372   7.0193234  33.3628879  58.5635623   7.4666652
  33.3234181  60.0705198   7.6027024   1.6332622  62.9910580   1.2381277
   1.4223469  63.2803101   2.1258663   2.5883409  63.0353485   1.1923586
  41.5100672  18.7296142   1.4360223  40.9204657  19.4358273   1.1717025
  41.4275020  18.6927045   2.3889402  70.0862523  29.1212028  66.0564419
  69.3316406  29.7100062  66.0666234  69.7910422  28.3452555  66.5328751
  56.6473445  60.9043634  49.9526860  56.4397954  61.4773859  49.2145801
  55.8830827  60.9655982  50.5257358  27.7706142  33.6412291  84.8079723
  27.1003056  33.8136186  85.4691835  27.3375697  33.8249645  83.9743383
  74.6571357  58.4004973   2.2245285  74.6990350  59.2315409   1.7514082
  74.2969144  58.6304079   3.0810409  65.7531487  29.8029947  32.2978831
  65.9234823  30.2746084  33.1132351  64.9280424  29.3438125  32.4546735
  67.2728446  31.4181591  19.3174160  68.0027447  31.2920215  18.7111429
  67.1398524  30.5574351  19.7145295  72.4775264  25.0030967   0.4603910
  71.9943161  24.5588121  -0.2362802  72.4358799  25.9304610   0.2269538
  83.4162252  19.2254487  57.7729868  84.0011250  19.9116497  57.4516580
  84.0024555  18.5208798  58.0489370  67.4077319   1.1756510  54.2225115
  66.6048477   0.9737994  53.7420277  67.6494244   2.0534371  53.9270321
  53.9074233  10.2078996  70.9708739  53.0703686   9.8624237  70.6606841
  54.5609045   9.7951964  70.4061879  56.9493658  11.3142514  21.0087825
  56.4969882  12.0696809  20.6333990  56.2502775  10.7780651  21.3829639
  55.7572099  37.6146632  41.7335357  56.3078890  38.2041470  41.2182753
  56.2164787  36.7752000  41.7089274  68.7959931  65.8256505  74.4767147
  68.6426996  65.4840081  73.5957984  68.0254541  65.5550588  74.9759958
  62.7481343  30.6803991  52.1893197  63.2228922  30.6228190  53.0184887
  62.5612552  31.6133215  52.0846118  43.0309800  42.9968201  60.8815793
  42.4015985  42.3917913  60.4890860  43.1037007  42.7096331  61.7917810
  77.5900193  47.7961394  12.5984823  76.9490917  48.3650077  12.1720642
  78.0597381  48.3735025  13.2003527  76.9427251  40.3262348  30.8130563
  76.6006575  40.6163941  31.6586502  77.5428625  41.0224043  30.5458202
  78.5682809  28.2786027  87.0021361  77.9377599  28.8430415  87.4494437
  79.0855914  28.8772483  86.4633921   2.1928624  35.7226182  39.1512418
   1.9951956  35.8739237  38.2269765   2.5569817  36.5532334  39.4573910
  51.3246442  70.2912643  71.4887787  51.7568352  69.4830389  71.2127090
  51.5171689  70.9165373  70.7900657   4.8562345  34.4308983  55.7050430
   4.4525646  34.0423577  56.4811349   5.6730145  33.9449559  55.5911912
   3.4083230  30.0921738   4.8084927   3.2589603  30.9897392   4.5113412
   4.2894600  30.1070766   5.1821333  79.9771844  37.0189307  84.3844236
  80.7082575  37.6216228  84.5205340  79.2462004  37.5824923  84.1308638
   2.6080478  70.9680933   2.9936063   3.2882371  70.4060014   2.6226251
   2.1698534  70.4174563   3.6424641  28.1391673  63.9641049  52.4582927
  27.2716823  63.6263990  52.2354556  28.1647625  63.9459593  53.4149784
  67.9590195  31.5562023  80.7429318  68.2160645  32.2490938  81.3512583
  67.6755289  32.0214610  79.9559126  65.6700832  38.0845370   4.1447258
  65.7088195  38.7556576   3.4633093  65.1097281  37.4014143   3.7765176
  83.1451140  43.4387785  12.2717494  82.4618380  43.3176605  11.6124345
  83.7087843  42.6710499  12.1763533  58.8354131  24.7258802  72.8727698
  58.6918339  25.6176713  72.5560278  59.2751288  24.8388949  73.7154498
  10.7668625  58.0698403  22.9352353  11.4428355  58.7427908  23.0154225
  10.8390121  57.7644410  22.0309359  60.8284271  17.5179584  87.7050356
  60.7097413  16.6197197  87.3963081  60.0849687  17.6709903  88.2882017
  54.6166913  69.8327275  74.9963759  55.0391725  70.1615969  75.7898407
  55.1312326  70.2038899  74.2796350  60.8454599  58.2142855  41.4274036
  60.7909307  57.9378114  40.5126246  61.3456657  57.5208822  41.8577730
  16.2540234  49.8155848  84.2447068  15.5694697  49.7022143  83.5853396
  16.2635388  48.9875954  84.7248890  76.4068921  61.5817578  71.0972363
  75.7752468  61.8733324  70.4397864  77.1174785  61.1899687  70.5894961
  47.5877219  25.5201584  19.5957114  46.7175389  25.1452446  19.7315538
  47.6011309  26.3010527  20.1491154  67.3930399  46.2288014  86.7004347
  67.5980393  46.7469004  87.4787537  66.5607664  46.5841535  86.3885413
  11.3603379  41.0549249  68.1426009  11.6389383  41.4039317  68.9892460
  10.4789043  40.7170351  68.3011477  66.5743282  49.1875228  50.9962979
  66.9727481  49.6977365  50.2911913  66.0105159  49.8110664  51.4540544
  83.9047019  20.5046898  60.6797707  83.4185199  21.0007006  60.0211113
  84.5070286  19.9600062  60.1730616  15.5094200  28.4158571  68.4113111
  14.7596708  27.9222853  68.0789034  15.3649059  29.3094498  68.1001206
  57.6339745  21.7880961  11.7230697  57.5877686  21.0889578  12.3752219
  57.9521203  21.3557358  10.9305550   8.2151464  66.5596026   6.2888979
   8.5270048  67.0226063   5.5113352   8.7546149  66.8997902   7.0026751
  41.5184844   3.9072002  10.9977943  42.3247349   3.8394078  11.5092592
  41.6986118   3.4103061  10.1997453  23.7815303   0.1383506  36.6577423
  24.3780854   0.2799559  37.3927945  24.1369403   0.6799600  35.9530617
  45.0917368  60.9201648  15.9312836  44.8460304  61.3722939  15.1241656
  44.4866978  61.2606423  16.5902485  47.0272339  37.4578864  67.5419059
  47.6807667  38.1464024  67.4191364  47.5112615  36.7374444  67.9455300
  30.7559610  41.2732348  75.8708264  31.2791457  41.9146050  76.3516109
  30.6598778  40.5392507  76.4776767   7.1194419  61.3271504  29.7504961
   7.0353544  61.1319610  30.6838032   7.8727449  61.9151670  29.6956988
   1.1128380  53.3964598  36.2014984   0.2627702  53.6217368  36.5794756
   1.6987070  54.0932393  36.4972817  82.6730728  49.3293381  36.8499645
  83.1412910  49.3561382  37.6844016  81.8725571  49.8296646  37.0083306
  25.1026773  59.6638326  51.5624804  24.9927937  60.2907305  52.2774325
  25.7796212  60.0503279  51.0069625  83.7219216  59.1734787  15.4615527
  84.3524959  59.8665371  15.6572003  84.1187236  58.3801214  15.8212252
  64.4757038  27.5007801  87.8355872  65.1210569  27.7608331  88.4929483
  64.8750812  27.7412987  86.9995966  45.9792694  26.9235099  85.6850154
  45.7878974  26.1773113  85.1168638  45.9025483  27.6865556  85.1122092
  74.6014490  46.5928318  85.9756800  74.6354208  45.8110166  86.5268992
  74.7024891  46.2613655  85.0834060  28.9895386  36.5743786   2.6562144
  28.1478949  37.0256261   2.5910736  29.2944324  36.5044000   1.7515738
  69.3488163  18.8909099  40.7747339  69.0934335  18.2491749  41.4374462
  70.0978372  19.3466703  41.1587677  82.1850340  10.9665014   3.0290679
  82.8206048  11.4913267   2.5424058  82.2157855  10.1055580   2.6118596
  25.1698837   1.3109132  83.8720444  25.4330127   1.9847901  83.2452391
  25.4418872   0.4875137  83.4667555  26.1657906  58.3619151   8.1416040
  25.5925207  58.1242039   8.8703611  25.5670734  58.5930079   7.4314170
   8.8657039  57.6367427  26.3708156   8.5552288  56.8381641  26.7975584
   8.2821111  57.7498059  25.6205703  31.2724747  33.4779888  22.2582530
  31.2549041  33.0234990  21.4160166  30.9112388  32.8454998  22.8792990
  51.5809037  19.9710349  84.9389309  51.6816329  20.6085052  85.6458376
  52.4259136  19.9764682  84.4893080  69.8880431  12.7818638  39.1998745
  69.3265873  12.8494197  38.4275822  69.7198127  13.5869929  39.6894635
  20.4280385  40.4110672  68.3612111  21.1027436  40.8920921  67.8820244
  20.6944436  39.4941255  68.2942931  29.1247316  16.5100378  71.1249560
  28.2884421  16.5745366  70.6637710  29.3848588  15.5945952  71.0223377
  49.6556215  50.0114877  61.2808158  49.0414619  49.6923807  61.9420348
  49.8706013  49.2375190  60.7602507  14.3247461  27.2038717  79.8357462
  13.9521253  26.7328530  79.0904094  13.7123907  27.0400877  80.5529822
  39.0847507  60.5912442  75.5501834  39.0931746  59.6475093  75.3904170
  39.6093186  60.7046774  76.3427697   9.9953912  31.9661567  67.2695124
  10.3499638  31.9735449  66.3804367  10.4993361  31.2902440  67.7227380
  41.9741923  24.1481245  73.2142121  42.8468790  24.3436627  73.5554078
  41.5519757  25.0032429  73.1321296  53.4004942  50.4407639  81.1872975
  53.1556098  51.1796585  81.7443417  54.1284837  50.7694265  80.6598091
  48.4415810   3.4736969  36.6020614  48.0027699   4.2472607  36.9560046
  48.3477300   2.8109947  37.2863491  75.0460802  49.0035109  25.1712239
  75.2817835  49.7626386  25.7045165  74.1362086  48.8198241  25.4049432
  58.4628775  54.4931068  58.6508113  59.2303790  55.0650051  58.6610854
  58.6807763  53.7888364  59.2613481  51.3368012   0.0398580  80.3220664
  51.9847658   0.5899820  80.7622224  50.5025964   0.2857928  80.7218791
   1.4877104  33.8154117  74.3581272   0.5598764  33.9788563  74.1888886
   1.7281712  33.1310637  73.7335647  11.4678781  34.4880012   9.4056113
  11.6675968  34.1212032  10.2668915  11.9213178  33.9128318   8.7893286
  78.9656023  34.2445244  56.9682014  79.4343001  34.9794786  56.5727315
  79.4503020  34.0558661  57.7717598  61.9653334  23.3041812  38.2120423
  61.6717660  23.7204999  37.4016542  61.3676152  22.5662927  38.3323975
  27.6202567  52.2143622  71.8083513  26.9977702  51.5778298  71.4568276
  28.3841599  52.1436108  71.2359197  76.4802466  43.0339666  57.3239277
  75.7478845  42.9853443  57.9383490  76.0703336  43.2026411  56.4755457
  22.9031948  49.9965500  38.7656197  22.7258590  50.5067043  37.9753498
  23.8566122  50.0088740  38.8497337  44.5272661  65.2546238  54.9971405
  44.9711036  65.6753520  55.7335018  45.2228066  64.7893605  54.5323983
  69.1098067  55.3347780  70.7445130  68.8811483  56.1212456  71.2399077
  68.2861866  54.8534572  70.6656970  59.7479315  15.4612587  50.2184450
  60.2446952  15.0033531  50.8965160  59.6470384  14.8160987  49.5185729
  32.3447315  58.9585133  21.1734404  32.4145279  58.1554324  20.6572803
  32.7065072  58.7258327  22.0285486  85.4435976   3.4066988  53.2461080
  86.3885700   3.3478891  53.1053944  85.2981139   2.9652399  54.0828758
  38.7856584  18.8635017  13.3604028  38.2213646  18.3507834  12.7816764
  39.6355577  18.8721942  12.9201445  63.4813886  55.9617328   4.1163931
  62.9268033  56.0263353   4.8938848  63.1927463  56.6819026   3.5557926
  28.4971506   1.7370468   4.8794974  27.7450889   1.1566397   4.9968115
  28.7097702   2.0352931   5.7638468  29.6362231  50.0341225  60.0476196
  29.4497412  50.2434474  59.1323931  29.7022060  50.8858189  60.4794660
  62.1375937  54.6896185  83.0277236  62.5540106  54.8813972  82.1874559
  61.2030535  54.6412930  82.8264002  66.7237746  49.6705426  42.2425124
  65.9657307  50.2068865  42.4747543  66.3645679  48.7935012  42.1083450
  68.0832484  36.7517729  13.1836034  67.3114167  37.2878648  13.3655735
  67.8216887  36.1969857  12.4487364   9.5359306  69.0725790  20.3165054
   8.6784470  68.9033198  19.9262426   9.5576901  70.0208842  20.4448622
  64.7487799  15.6491691  63.2688824  64.4236932  15.5486772  64.1635622
  65.1544245  16.5160903  63.2574008   0.8811778  70.9251587  30.0167881
   0.6095214  71.2168099  30.8870606   0.1414793  71.1426951  29.4495528
   3.6064847  18.1087818   3.5400459   4.1009788  17.9962564   4.3518621
   2.6949000  17.9622852   3.7926007   4.9340072  13.3126130  51.9158142
   3.9881294  13.3513702  52.0573942   5.0342400  12.8207308  51.1008068
  45.0307229  64.2738594  68.4543901  44.2528860  64.0376014  67.9490349
  45.7371551  64.2989727  67.8089796  15.1542817  12.6317634  22.0581736
  15.2178150  12.9846355  22.9456851  16.0611439  12.4649332  21.8012678
  65.2070547  33.1862188  85.6842093  65.8847231  32.5782407  85.3886420
  64.4308342  32.9435090  85.1794267  37.1268378  22.4565956   1.1453760
  36.1769375  22.5702614   1.1770195  37.4758240  23.2354214   1.5788166
  54.8608190   8.0093197  51.1050300  55.0589799   8.1438384  52.0317817
  55.6269556   7.5504980  50.7604298   9.0665625   6.6261521  77.1055061
   9.1456562   7.5521014  77.3348396   9.6903314   6.5024697  76.3900713
  42.4199903  57.2719376  23.5308641  42.4245774  57.7026131  22.6760370
  42.4781748  56.3381000  23.3288895   4.2269916  20.8952190  74.6071863
   4.0407825  20.5674031  75.4870128   4.1373165  21.8452976  74.6816236
  85.3469870  10.6003270   3.5205038  86.1214979  11.1521313   3.4115233
  84.8574767  10.7109483   2.7054121  60.4860666   8.3802184  86.2111233
  60.7057022   8.6161898  85.3098411  60.1202123   7.4981400  86.1453956
  85.5435365  29.3176542  39.6112383  85.5839640  29.4927808  38.6710638
  86.3406398  28.8212806  39.7969031  60.4065916  48.3675253  13.4829819
  60.0774339  47.6664712  14.0454854  59.9650149  48.2295153  12.6450111
  51.9650741  21.0692996  54.9678501  52.0509006  20.2841502  54.4271043
  52.4419603  21.7451664  54.4861703  39.2259924  66.0145677  71.7703047
  38.8998348  66.2172412  70.8935057  40.1693281  66.1676293  71.7162514
   5.4366214  17.5441656  33.6788130   4.7974946  18.1797898  33.3567403
   6.2424093  18.0491197  33.7881702  39.7854214  14.9390017  85.2788411
  40.5645172  14.3833872  85.2557320  39.1924464  14.5468010  84.6379113
  41.7343003  53.3095042  50.9477198  41.0280069  52.9611599  50.4036263
  42.3389535  52.5751597  51.0543243  49.1157131  61.5581113  66.4813207
  49.2156164  62.3941095  66.9366866  48.6024566  61.7699136  65.7016160
  79.0288888  16.3465082  34.8470950  79.5243876  16.8468773  34.1987559
  79.6809667  16.0849004  35.4971623  22.5268521  61.4559693  61.5264449
  23.1989412  60.7862330  61.6528622  21.7135202  60.9622925  61.4215348
   3.3169521   7.3808620  58.3883662   3.3501739   7.6571192  57.4725005
   2.5827800   6.7679038  58.4271666  36.7751490  28.1801431  88.4438432
  36.9512365  27.2691456  88.6790209  37.2941615  28.3280360  87.6532828
   7.0004958  26.8576131  76.6143679   7.2918085  27.2209909  77.4506247
   7.7843309  26.8626058  76.0649960  67.5211261  51.9159020  26.8757785
  67.4858098  52.4742560  26.0991026  66.6309592  51.5760634  26.9671264
  43.8315292   9.3312970  16.4204578  44.6912172   8.9665648  16.6305504
  44.0078741   9.9867620  15.7455505  24.0134379  68.2573422  75.9027799
  23.9536511  67.7416125  76.7069442  23.5757153  69.0819734  76.1140006
  69.6836977  64.8816553  58.1006937  70.2243614  64.9448929  57.3133465
  70.0691207  64.1607310  58.5986384  46.9723574  43.2966985  42.1784627
  46.0564024  43.0200993  42.1510541  46.9341393  44.2530849  42.1686446
  79.1938534  49.1319281  69.2882276  78.5554216  48.4315931  69.1534405
  79.5135370  49.3369627  68.4095951  49.2890663  13.2870596  86.6202000
  48.4762053  13.2264993  87.1220180  49.3620589  14.2141476  86.3934583
  43.5187073  70.2818937  64.5573549  43.9755140  70.8098882  65.2121688
  43.8059142  69.3852436  64.7298736  32.4475540  53.8679057  20.6452720
  33.1295432  53.2005433  20.7211000  32.6880461  54.3686280  19.8657384
  28.4870638  23.1109931   7.6785939  28.9484592  23.7782407   8.1866556
  28.7399213  23.2831696   6.7715932  58.8618490  17.1804383  27.2453767
  58.2231178  16.5122005  26.9969565  59.5685994  17.0853456  26.6068683
  46.9007270  64.4656329  51.8824030  46.2413325  65.1279767  51.6756873
  47.5088763  64.9094282  52.4735307  62.8400740   1.2520923  72.2724346
  62.6613082   0.3123284  72.2389910  63.6408274   1.3252447  72.7917366
  51.5898455  59.1961124  33.0434655  52.0591978  60.0194274  33.1779742
  51.4683715  59.1417648  32.0955613  48.5059579  44.5866346  77.2544409
  49.4068658  44.8990573  77.1708412  48.2725822  44.7693307  78.1646001
  66.1625248   4.3898468  65.4873133  65.3015806   3.9732528  65.5254773
  66.3535432   4.6285014  66.3943898  57.3233368   4.6548665  31.8242971
  57.1341634   3.7175273  31.7813964  57.0819692   4.9073775  32.7154827
  26.2511021  57.8312886  41.0394084  25.6966834  58.4710885  41.4860714
  27.0910004  58.2771837  40.9299545  18.5524836  66.1082059  82.4554128
  17.6344493  66.3791723  82.4507118  18.7012840  65.7816518  83.3427982
  76.1530445  31.5470415  30.8659566  76.3760966  31.5907975  31.7957765
  75.2653351  31.1893794  30.8491735  64.5473183  25.8543461  36.0168957
  64.8317950  25.7526774  35.1086180  64.3823618  24.9607269  36.3176710
  21.9537097  46.8348291  77.1958813  21.2714497  46.7348682  76.5319831
  22.2191145  45.9388695  77.4033628  27.3312903  26.2010698  14.4266393
  27.3866563  25.3170183  14.7894332  26.4856536  26.2236283  13.9787314
  49.5196183   2.9075475  75.1298900  49.2535299   2.0817066  75.5341369
  49.9552856   2.6474783  74.3182314  70.7223634  64.3045478   8.2067323
  69.9289790  64.2836805   8.7418375  71.2688452  63.6031579   8.5611921
  71.2703794  54.4769092   8.7371443  70.6695756  54.5449279   9.4791955
  70.9414288  55.1144150   8.1034175  13.4461482  39.7338153  19.9494537
  13.1664578  40.5579983  19.5510474  14.1834703  39.9765852  20.5094990
  74.9649566   5.2623028  27.9051598  75.8749745   5.4120506  27.6488886
  74.6581790   4.5778694  27.3104581  31.5716604  19.1140529  20.5728443
  31.4848498  18.6032651  21.3776993  31.2333128  19.9799035  20.8010011
  80.6129786  22.1184876  36.4932539  79.8993971  22.4597002  35.9541739
  80.8269879  22.8360979  37.0894646  43.0158079  22.8839817  19.2362615
  42.2265832  22.8571806  18.6953013  43.2858171  21.9687393  19.3114837
  68.9111611  43.1408765  47.7639898  68.9358979  42.2222684  48.0319059
  69.0710290  43.6301305  48.5710243  41.7159676  47.4915350  18.8969776
  42.2508221  47.3073239  18.1248191  40.9696123  46.8973537  18.8186567
  71.4968171   4.6637977  27.5187071  71.2206018   4.8479678  26.6209219
  71.9045968   5.4773463  27.8155007  25.8509560  29.5395505   4.1585952
  25.6915484  30.1446743   4.8829199  25.0319849  29.5380446   3.6630996
   9.4503289  30.3549602  70.4563430  10.1358814  30.9094043  70.8289574
   8.7626732  30.3442981  71.1221115  60.2221171  29.9250466  45.9021532
  60.4863099  29.0951784  46.2993341  59.3816820  29.7343706  45.4855678
  44.5944949   3.4843021  22.3096291  45.3583787   3.6136083  21.7474964
  44.3373761   2.5746960  22.1588356  63.2778156  61.7529550   8.7126049
  62.8953254  62.4101707   9.2939831  63.7792149  62.2604612   8.0744294
  64.6788713  59.4873542  43.7453811  65.1020991  59.5821719  44.5986804
  64.1309009  60.2677202  43.6617799  67.5480361   5.5324248   5.9112959
  68.3171313   6.0823802   5.7620527  67.3164966   5.2036316   5.0426669
  14.5997590  45.7343691  79.0473244  15.0814052  46.0701546  79.8032985
  13.9327961  45.1603231  79.4239720  22.3471915  57.1048181  87.8948109
  22.8348561  57.0391401  87.0737741  21.6807080  57.7705286  87.7249253
  39.6913192  53.6342400  49.0511402  39.1712154  53.0915162  48.4585403
  39.4401051  54.5324528  48.8358797  16.6872132  35.7072136  14.8540630
  15.9677864  35.2219507  15.2580144  16.4091031  35.8372602  13.9474349
  20.5547516  22.0972749  82.2379259  20.3602314  22.1804356  83.1714557
  20.0921432  22.8296656  81.8307044  79.2038715  55.1832268  42.7665859
  79.4549349  54.4938198  43.3813355  79.1660761  55.9773542  43.2996571
  22.0427870  58.9282774  13.1845233  22.2969093  59.8457851  13.2836860
  21.4226807  58.9289634  12.4553460  76.0502705   2.4441985   3.9315653
  76.3625866   2.9677320   3.1935930  75.4964589   3.0429330   4.4326057
  83.8049925   2.4063141  62.9453297  82.9122829   2.6303883  63.2081835
  84.2379614   2.1521154  63.7602854  21.6952663  65.8597815  34.1450693
  21.6448291  64.9062028  34.0789218  20.9668740  66.1758135  33.6104664
  27.8559616  68.2686528  83.5380646  27.0919075  68.7180386  83.8993201
  27.5355286  67.8601320  82.7339096   3.4636767  59.4626332  62.7551793
   3.1550379  60.3670797  62.7008604   4.0393553  59.4515232  63.5198377
  13.1392413  48.9985501  86.8164627  13.0453608  49.6795266  86.1503626
  13.1863978  49.4776443  87.6437939  17.2208918   0.5507154  83.2924378
  16.8542363   0.1641030  82.4972483  16.7165025   1.3537099  83.4229100
  51.1739571  55.7177908  11.2907885  51.7716631  56.4627064  11.3546639
  50.3611296  56.0279946  11.6899337  55.4293482  63.1871858  59.2006815
  56.3580808  62.9659932  59.2696853  55.1815990  62.9084119  58.3191276
  85.8749952  39.7015680  55.2721884  85.4379590  39.0807275  54.6892746
  85.5937546  40.5617018  54.9602504  16.6580652  60.9416484  57.4983610
  15.8950844  60.4181663  57.7434297  16.4320725  61.8331651  57.7636102
   2.6950551   3.5327422  42.9059353   3.5722097   3.3451443  42.5718116
   2.1466638   2.8372367  42.5429325  61.7637545  13.8143753  81.0893991
  62.1915926  14.1076477  81.8938726  62.4392074  13.3195206  80.6255952
  25.2930707  66.7206681  33.8343545  25.7705372  65.9500454  33.5271114
  24.7713404  66.9955198  33.0803745  79.3969482   7.1587333  14.2991566
  78.7342590   7.4776355  13.6864771  79.6890096   6.3275819  13.9248314
  43.0509036  62.5435469  50.7242424  42.7496770  63.1088036  50.0129203
  42.7809026  62.9981649  51.5221482  67.8231454  37.5065535  29.7252200
  68.5606762  37.0174221  29.3604864  67.4261828  37.9400452  28.9697483
  40.4524358  63.8257625  74.7631613  39.5665484  63.4779482  74.6608849
  40.3362906  64.6337220  75.2631048  81.6757892   2.8764169  55.3406836
  81.5148136   2.3943283  56.1517997  81.5288779   2.2336059  54.6468228
  82.4624503  60.5830473   2.6757364  81.9655926  60.8291539   3.4559901
  81.9173182  60.8716082   1.9437559  82.8098078  46.8133199  63.5352098
  83.7603755  46.9217508  63.5052843  82.5552263  46.6788397  62.6223378
  67.9771878  53.5763232  49.3827186  67.4304804  53.0186336  49.9361851
  67.3555186  54.1406351  48.9230325  73.6778330   0.8537278  71.0615979
  74.0515623   1.7317669  71.1364681  74.0547163   0.3695587  71.7962890
  21.0952513   2.6646433  51.0199992  21.1166906   3.5071575  51.4738077
  20.3617010   2.7399254  50.4096974   0.1767931  62.3788850  35.5501789
   0.7023413  62.1106795  36.3039009  -0.6438832  61.8956839  35.6462981
   3.3533081  50.0500956  66.0253303   4.0054380  50.3323135  65.3839946
   2.5129195  50.1832744  65.5868758  42.7435036  12.4366584  17.3734147
  42.2703500  11.7028793  16.9810810  43.5637110  12.4828872  16.8821362
   0.8615274  18.5840824  23.2760853  -0.0231568  18.2649785  23.4542380
   0.8554852  19.4906895  23.5831014  75.3601335  20.9163411  40.6835752
  76.0834360  20.8860690  41.3097932  74.9084351  21.7373489  40.8788867
  25.1576187  51.4543763  87.4353742  24.3474675  51.7848629  87.8235306
  24.8686184  50.9262418  86.6912071  75.8849195  16.7845105  43.8841236
  74.9542730  16.7436972  44.1042673  76.2146102  15.9060846  44.0736065
  16.1520638  48.2692900  67.1909828  16.5368088  48.7256778  67.9392564
  16.6407269  47.4481873  67.1341452   3.8206333  25.7513837   0.4533564
   3.6079117  26.3379092   1.1792829   4.7236369  25.9713761   0.2244029
  70.5334064  65.8996880  35.9031420  71.2136885  65.2435190  36.0544376
  69.9133460  65.7717653  36.6210506  12.9475576  16.8647273   0.6984509
  13.3154212  15.9814089   0.7240791  13.1674841  17.1905400  -0.1743093
  46.0564604  27.0906968  27.9207337  46.6819697  27.0301163  27.1987226
  45.4878625  26.3287410  27.8095955  71.4893006  40.4143761  70.0566757
  72.2466095  40.0177235  70.4872356  70.7997210  39.7544860  70.1291787
  73.1791531  36.9882744  37.7386305  72.3307727  36.6017607  37.5216287
  73.7264795  36.8093541  36.9740043  32.8148305  32.5679198  31.2223408
  33.0560147  33.2932744  31.7984682  33.1990125  32.7963994  30.3759170
  22.1306667  56.4946913  42.8123424  22.8289627  56.5074696  42.1577805
  22.3572174  57.2003940  43.4180571  74.3633199  66.6848841  83.8709210
  74.7675287  66.2197360  84.6033719  74.2582752  66.0179816  83.1923648
  75.0032594  36.3714896  41.1567589  75.0714091  36.7530543  40.2815470
  74.0844506  36.4886095  41.3982237   8.4069788  65.3788653  63.5982115
   8.8271413  66.1666205  63.9433737   8.7135476  65.3208198  62.6932926
  56.5719465  41.0700677   8.9465072  57.2747410  41.5003243   8.4594848
  56.9346192  40.2176584   9.1875440  13.0753505  62.9771218  69.6396751
  12.2344254  62.6883813  69.2851248  12.9002802  63.1437074  70.5658670
  49.7348407  19.0740675  13.4978896  50.2862359  18.8628842  14.2512798
  48.8718097  19.2474866  13.8738352   3.7776452  52.9912712  84.6775587
   3.5910828  52.2121167  84.1537797   2.9781615  53.1369176  85.1833697
  41.4243009  61.9578800  34.7482396  40.9961166  61.2239482  34.3075196
  42.1873084  61.5685786  35.1754348  70.1619903  58.9726483  13.7809354
  69.8909982  58.8387796  12.8727095  70.9293521  58.4104373  13.8872680
  54.7095056  46.9527987   3.4367105  54.5153961  47.8318124   3.1113058
  55.1687632  46.5257046   2.7135888  10.4213389  53.3877187  14.0280131
  10.0271706  53.9822433  14.6662949   9.6959592  52.8365918  13.7342184
  31.1050195  50.6400010  21.9391795  31.6640586  50.0690873  21.4121457
  31.6392406  50.8602157  22.7022949  13.3271794  41.9412688  63.5129351
  13.3406341  41.3043364  64.2273354  12.7765278  41.5373114  62.8422391
  61.0906533  29.0771198  81.9001003  60.6198575  28.4618444  82.4622563
  61.0453413  28.6868945  81.0272298  15.7572979  14.6492790   4.4800234
  15.2609400  14.5281209   3.6705907  16.6731705  14.6481465   4.2018005
  78.7741596   8.5148786  62.4489266  78.0582461   9.1015963  62.2050782
  78.3633095   7.8549125  63.0073877  73.7988899  21.1443592  63.8610913
  73.3012256  20.8086016  64.6066306  74.4825562  21.6868195  64.2542441
  54.5754867  43.5412831   4.2428156  53.6776195  43.8511798   4.1243663
  54.4837469  42.6068651   4.4290374  18.8626923  27.6547832  21.8739355
  18.6332226  28.0495604  21.0326707  19.5836810  27.0590391  21.6702295
  85.0305644  18.5734219  75.7143246  84.9505353  18.6617342  74.7645729
  84.4011414  19.2023228  76.0672299  53.3323839  63.4169378  60.8917146
  54.0761393  63.3147142  60.2979048  52.9032910  62.5613125  60.8876486
  32.3313990  28.0498894  10.8451472  32.9070913  27.6378610  10.2009091
  32.4023924  27.4931343  11.6205281  63.0361879   9.8651152  60.5109157
  62.1703005   9.5006612  60.6943392  63.0825152  10.6551180  61.0494148
  46.4954926  38.2992717  27.7336479  46.1424801  38.9235786  28.3675681
  47.3869298  38.1278251  28.0372556  71.8828355   4.1136822  69.2762748
  72.1604524   5.0270439  69.2060534  71.3045733   3.9806912  68.5251702
  61.1605089  46.2333517   7.7275303  61.0207092  46.2320259   8.6744655
  60.9601062  47.1294170   7.4570907  43.0588193  46.8165391  29.6851515
  42.5564830  46.5316300  30.4485104  43.9410143  46.4785619  29.8392142
  15.4916191   7.5025253  78.0831004  15.6008524   7.3999904  77.1376976
  15.0585592   8.3502195  78.1836267  83.5869522  41.7415279  55.2300949
  82.6872188  41.4722600  55.0451452  83.7656913  41.3952086  56.1043643
  36.3941520  20.9917262  78.0257614  36.6842114  20.5836544  77.2099337
  37.1452357  20.9118911  78.6137507  51.2087373   8.0152340  80.8990649
  51.4671844   7.5122257  80.1267829  51.5293512   8.9005033  80.7266208
  80.7374406  40.6782671  47.0405609  80.2431099  41.3601933  47.4953638
  81.1172657  41.1228399  46.2827220  18.1145627  64.2667233  17.4092425
  18.6681492  63.8555744  16.7453673  17.4721259  63.5941486  17.6354065
  68.9718507  33.6371743  46.9710219  68.4162677  33.3258355  46.2564399
  68.9934216  34.5877753  46.8609118  35.6878082  59.7567116  23.5644477
  36.1598270  59.7349690  22.7320070  35.5745592  58.8358066  23.7996932
  57.3058203  22.3279100  35.8857731  57.4655271  22.7927969  35.0644292
  56.6786790  21.6425693  35.6550488  83.2655894   2.6923888  77.4257144
  82.4383793   2.5277717  77.8783252  83.0080401   3.0819259  76.5901541
  11.2949936  67.5930798  39.7104478  10.5307934  67.1654925  39.3239263
  11.8366067  66.8717512  40.0307166   9.2623522  64.0856234  31.0569465
  10.0455111  64.1339937  31.6051750   9.4870822  63.4543300  30.3734285
  72.5334853  70.0577945  80.1078404  72.3052939  70.7783048  80.6952290
  73.2938031  69.6458251  80.5182425  73.1535816  51.2326315  85.4589597
  73.0288231  51.7314801  86.2663117  73.8562036  50.6159714  85.6645917
  19.8063831  63.1454407  14.2681292  20.3039848  63.0349553  15.0783251
  19.3144163  62.3295231  14.1760476  66.8275277  56.0250055  54.0788840
  67.1303304  56.0588086  54.9862977  67.6283753  56.0760377  53.5570884
   2.9100081  45.8372466  64.0315716   2.7219848  46.0686412  63.1219917
   2.4032596  46.4640702  64.5478371  19.3552857  51.5220705  70.9148856
  19.4826147  51.3989314  69.9742178  19.9260373  52.2568801  71.1396728
  70.9008803  45.4653865  51.7432474  71.7242462  44.9781167  51.7727194
  70.2334908  44.8227020  51.9836214  80.9436340  59.8642714  12.3943070
  80.7495745  59.4765820  13.2476942  81.7604029  60.3446922  12.5296444
   8.5423793  52.1070634  23.7245962   9.3039431  51.5343644  23.6336662
   7.8340390  51.6349389  23.2868928  49.0001121  61.6151209  47.4033199
  49.5394995  62.1554314  47.9806912  48.6528654  60.9287263  47.9729812
  32.9970279  50.4077797  88.7986315  32.6765963  50.9935103  89.4845434
  32.5273192  50.6818498  88.0109189  82.6043445   0.2492856  25.1697616
  82.2155170  -0.4363904  24.6267206  81.9091131   0.4942898  25.7803826
  13.1288439  69.9788604  22.1053393  12.8945932  69.0906606  21.8361559
  13.4085016  70.4082477  21.2968531  44.5098217  65.7106620  51.6820287
  44.0988536  64.9186969  52.0286240  43.9914727  65.9303342  50.9078902
  40.5750884  46.6807772  42.9827122  41.3490779  47.2089846  43.1780813
  40.8141670  45.7952185  43.2563161  33.2143891  33.9464875  67.5212020
  32.7935061  33.0920642  67.6163343  32.5220917  34.5190494  67.1908552
  57.0531502  14.7698294  11.5588937  57.4949474  14.0160825  11.1678531
  57.6427523  15.5054809  11.3933100  25.2131032  47.7377651  41.5113166
  25.3650116  47.9314532  40.5863082  25.9899751  48.0750247  41.9573635
  37.6980206  25.8678038  13.8247611  38.2528178  25.1356901  13.5556117
  38.1389021  26.6429428  13.4768894  74.0450617  13.4319445  12.2702790
  74.0537403  13.3282857  13.2218101  74.8135163  13.9703468  12.0809845
  72.2779720   9.3233994  49.4480094  72.2456374   9.8831799  48.6722310
  71.3819026   9.3284960  49.7845587  19.1651093  34.5007187  70.4789705
  18.5572733  34.8606023  71.1249201  18.6014720  34.1426630  69.7931565
  74.2804204  32.7094847   2.3064518  75.0009300  32.4596433   1.7279390
  74.1727209  33.6496617   2.1625775  62.3211142  53.8409254  85.6647021
  63.1586883  54.1521661  86.0079668  62.3567590  54.0402068  84.7291551
  65.5199116  44.0657450  31.2637590  65.6915841  43.5334625  30.4869477
  66.3709822  44.4409556  31.4898732  72.9369907  43.7558353  44.9113070
  72.7400743  43.4915480  44.0126368  72.0922632  44.0245726  45.2724823
  66.3212162  13.2140173  79.9727640  66.7293629  12.3540250  80.0730706
  66.6584532  13.7263627  80.7076145   8.6410169  53.8722641   9.0571421
   8.0443033  54.6206913   9.0617593   8.0755894  53.1142183   9.2050952
  80.8268257  15.9570585  68.2635533  81.0827334  15.6476112  69.1324523
  79.9606767  15.5760665  68.1191138  57.9702205  64.2005987  20.6628187
  58.1855480  65.0762575  20.9838913  58.1884733  63.6182989  21.3905030
  21.2801757  17.5060202  48.0246439  21.6356856  18.1311263  47.3929106
  21.9994443  16.8961731  48.1888725  11.8862541  21.3871888   9.2574684
  11.3309649  22.1667629   9.2697131  11.6998449  20.9735639   8.4146174
  27.6190688  15.0863596   9.5208119  27.8971345  15.2799862  10.4160326
  28.2387911  14.4238053   9.2155285  11.4796559  55.0294143  48.6457122
  12.2338238  55.4970086  49.0046249  11.7596163  54.7587516  47.7713005
  18.6717138  64.8574976  55.0584788  18.8923895  64.5832608  54.1683505
  17.7420881  65.0816969  55.0164973   3.6181064  15.7048277   9.5057922
   4.3861687  15.7298224  10.0764826   3.9626079  15.4433467   8.6518728
   8.5865480   8.7980438  30.0058627   8.4227911   9.2028019  30.8576763
   8.2504214   7.9063271  30.0958189  64.3564605  56.0647358  44.4960280
  64.6334528  56.6758671  45.1786886  64.1844092  55.2466946  44.9623312
  70.3193983  37.7056156  73.6046945  70.2505175  36.7519075  73.6486064
  70.8832310  37.9392339  74.3420865  86.0957029  39.4515276  73.9941490
  86.4086520  39.8722735  74.7949409  86.0550083  38.5205494  74.2129076
  10.9771303   3.9620784  26.9100849  10.1949056   4.3596655  26.5276182
  11.4597526   4.6976954  27.2871462  53.0484049  47.5791710  73.1401075
  52.5550605  47.8161493  73.9254000  53.5660703  46.8181664  73.4030264
  22.7914295  26.1869987  26.0297874  22.2877540  26.2301986  26.8426076
  23.6672865  26.4856194  26.2745977   9.4219564   7.1612747  81.1230075
   8.6645018   7.6677676  80.8298193   9.0525669   6.4847082  81.6904940
  25.0027477  55.3422761  32.9383589  25.9142607  55.1500348  32.7183153
  25.0541552  56.0720364  33.5556424   3.1096970  44.0270388  52.4377768
   3.0394911  44.8959746  52.0424876   2.3029980  43.5808288  52.1801625
  50.9705201  55.7738742  59.2089112  50.4149659  55.9393566  58.4471980
  51.3889577  54.9334847  59.0221298  57.3575189   0.4455532   8.9477608
  56.4213279   0.4487266   9.1471805  57.5875090  -0.4819662   8.8925878
  53.1449904  25.7797256  10.9589470  52.5074125  25.2402424  10.4913103
  53.9954296  25.4674105  10.6500066  81.9545637  10.1828758  33.0132462
  82.8503328  10.5170453  32.9667675  81.4875352  10.6526161  32.3222613
  20.0074844  44.2290407  80.6511783  19.1669298  44.4805901  80.2685262
  20.4251958  45.0596686  80.8787882  85.8873496  66.3930102  24.3497154
  85.3637089  66.5317200  23.5605438  86.0694409  65.4533006  24.3542307
  26.7838034  27.7294556  88.0452329  26.3096960  26.9337220  88.2866083
  26.9527495  28.1696007  88.8782763  80.6461181  19.4309705  15.2858747
  79.7333752  19.6021942  15.5178547  80.9263703  20.2182851  14.8191561
   7.2887314  42.6376439  40.5372097   7.4137873  43.5842625  40.4700825
   8.0140280  42.3385233  41.0855742  28.4417313  56.0182113  40.0191313
  29.3225292  55.7889066  39.7227424  27.9699043  55.1855238  40.0347041
  76.4958410  20.1215784  65.5013474  76.9917905  20.4928738  64.7716861
  77.0063261  20.3492712  66.2783884  85.9009191   9.2164474  76.7190434
  85.4670918   9.5110385  75.9182677  85.2387590   9.3205543  77.4023718
  61.0898869  63.7615327  79.7715136  60.6642951  62.9184272  79.9273232
  62.0155032  63.5999702  79.9541715  53.2244504   5.8408843  57.3152864
  53.2229201   6.5956912  57.9039256  52.7758915   5.1528702  57.8068790
  42.8642188  68.8111825   6.5362371  43.7594208  69.0977059   6.7172057
  42.6798213  69.1423157   5.6572717  57.3384935  52.6899427  47.3432606
  56.4136079  52.5565958  47.1358065  57.7096874  53.0719477  46.5479499
  28.5541431   2.5466370  46.1589653  29.1260026   2.6986000  45.4065587
  28.8002964   3.2250479  46.7877730  85.9775770  56.9243308  19.0763211
  86.1299926  56.6461037  19.9794219  86.8369659  57.2084764  18.7649629
  81.2245338   8.3765303   1.1874387  80.3411843   8.7264707   1.3034879
  81.4132337   8.5059499   0.2579901  74.8088870  61.3554578  76.2433257
  75.2086572  62.1131373  75.8163160  74.6543533  60.7336401  75.5322040
  53.0713112  33.2424331   1.2694269  52.6881758  32.6967536   0.5826424
  52.3499537  33.4035845   1.8776253  45.6848777  41.1962391  13.6034891
  45.1133513  40.4962887  13.9191771  45.7280344  41.0615654  12.6567937
   4.3765077  49.5407341   0.0407465   4.6587946  49.8465096   0.9027484
   5.1807203  49.2386715  -0.3814289  50.9644034  44.8330152  76.2024149
  51.1380678  44.9511192  75.2685391  50.8960483  43.8849558  76.3152995
  39.3632672  39.4613374  25.6563447  38.8443641  39.2271344  26.4258383
  40.2606007  39.2255166  25.8917444  28.8706357  15.8131871  78.1339877
  28.0109152  15.9571637  78.5294410  29.3414184  15.2777629  78.7726711
  85.4567374  53.7765191  38.3302820  85.3256250  53.0048464  38.8812472
  85.7408477  54.4592708  38.9380347   4.8532441  58.2654369  69.2400175
   5.3636271  57.4664661  69.3718762   5.4562196  58.8650346  68.8005464
   7.6640895  47.0927294   0.7550606   8.0628039  46.2564897   0.5143081
   8.0248157  47.7194400   0.1278906  46.6009545  13.5792586   8.6310449
  47.2505087  13.6079830   9.3335305  47.0942886  13.7951808   7.8396974
   4.8371303  48.8432245  61.2508450   4.1729147  49.1667726  60.6422678
   5.1958319  49.6328568  61.6558708  66.0579813  33.3538694  66.6205781
  65.8949404  34.0241437  67.2841908  65.1963326  33.1751077  66.2439649
  81.8328504  19.5063048  39.5362902  81.5167164  18.7963876  38.9774443
  82.4605968  19.0866311  40.1245422  74.4719963   8.6486085  10.8482733
  73.6037889   8.3251979  11.0888006  74.5910460   9.4345205  11.3815662
  71.5027864   8.6839165  64.0174690  71.1098330   9.3753148  64.5501864
  70.9257489   8.6100471  63.2573356  46.4334898  22.5532868  79.8115340
  46.2161826  23.4075501  79.4383805  46.8195231  22.7553958  80.6638028
  11.8355215  24.7600644  67.9881187  10.9012175  24.5869580  67.8726113
  12.0097501  24.5343825  68.9018714   6.7334682  39.2539750  86.7791402
   6.9433158  40.1140066  86.4150776   6.9695251  39.3214453  87.7043195
  62.6436175  33.2378421  51.2516657  62.0812217  34.0098234  51.3148134
  63.4127653  33.5406760  50.7690322  83.9805940  52.5800479   4.9220808
  83.8456804  51.6580864   5.1412089  83.0984936  52.9247891   4.7832132
  85.2562232  38.4102315  12.3277553  85.4490500  37.6446334  12.8689661
  86.0119290  38.4884118  11.7454938  29.8410680  43.6549603   3.4695171
  29.2388797  44.0161019   4.1200383  29.3892508  43.7720731   2.6338272
  33.3150358  57.0825679  60.0383133  33.4593082  57.9962387  59.7920958
  32.6339368  56.7776485  59.4388468  72.0497924  44.6510828  87.0818657
  71.4898051  45.0975767  86.4468151  71.4385398  44.2465542  87.6974619
  35.7136342  69.5570007  24.9692507  35.9772579  70.0457454  24.1895950
  34.9581381  70.0368555  25.3086574  45.3141681  67.7916137  61.9504332
  45.2190360  68.0768543  62.8591793  45.1199176  66.8545778  61.9719360
  60.8161685  39.4258428  70.9074574  60.7372826  38.5044463  70.6604000
  61.4922615  39.7728322  70.3254535  34.4264263  61.1540586  14.5161101
  33.5809458  61.0964394  14.0710544  34.7224816  60.2465044  14.5863130
  71.3697096  70.5273328   8.3053268  70.8536038  69.9702118   7.7226752
  70.7460349  71.1766312   8.6304010  23.1956719   4.7827228  43.5335399
  22.4436888   4.3876751  43.0923024  22.8104414   5.3715690  44.1824539
  19.9052630  48.4949187  61.7294583  20.4678029  48.2422154  60.9973915
  19.9091051  47.7328409  62.3086425  10.5183055  50.9969255  64.2537773
   9.8621090  50.3410101  64.4891769  10.9186042  51.2450517  65.0870997
  55.7126520  57.4111072  45.5295297  56.3295825  57.9621360  45.0478701
  55.8131005  56.5423891  45.1403372  61.3079493  13.1982535  29.1669140
  61.1436397  13.3205297  30.1019449  61.0504738  12.2925177  28.9949235
  65.1486448   0.8247491  27.7681655  64.7114291   0.6863037  28.6083483
  64.5721333   1.4239656  27.2940285  62.6968694  67.4140452  32.2959233
  62.4717603  66.6016822  32.7493813  61.9739135  68.0084993  32.4964002
  34.1872723   3.9132093  75.4008109  34.5251144   3.2281672  75.9777094
  34.9694836   4.3519272  75.0662905  14.7116857  55.3285843  36.6686542
  13.9735923  55.9131150  36.8412050  15.4859632  55.8564600  36.8637784
  74.5444742  38.2602569  63.8791323  74.8788013  39.0569638  63.4671670
  75.3273987  37.7465570  64.0775598  24.6231427  37.6325744  70.9381047
  24.5784017  37.9226450  71.8491970  23.7604255  37.8389087  70.5784145
  65.3964733  57.8587812  46.4192175  65.1619996  58.7660177  46.6146041
  66.2614150  57.9170276  46.0133666  31.3255447   6.5448078  53.5683016
  32.1768026   6.9374153  53.7618245  30.8407774   6.6062346  54.3913807
  45.3965834  22.7641479  69.9211368  46.1061643  22.1716688  70.1695225
  45.4416018  23.4736978  70.5620299   5.7943148  15.0561909   7.7205358
   6.2587445  14.5291099   8.3707070   5.9774373  14.6236845   6.8864877
  20.2950991  46.2341432  11.2713925  20.3261110  46.9299988  11.9279405
  21.1369897  45.7867233  11.3566419  38.3392167  62.8826569   5.9900554
  37.6328141  62.5739104   5.4226907  38.0636816  62.6341624   6.8724175
  50.9446646  67.8643742  46.4987588  50.9091614  67.1423345  45.8713594
  50.0278004  68.0880375  46.6586544   6.0212490  40.2580930  40.8084534
   5.3052853  40.1764095  40.1784092   6.3454560  41.1506511  40.6881965
  17.3601196  43.8992625  86.1592396  17.3912571  42.9686905  85.9372081
  18.0508919  44.2954651  85.6281192  76.0335552  51.5772534  26.3848091
  75.8734687  52.2025431  27.0916449  75.5531934  51.9328300  25.6371129
  57.2980626  41.2763561  22.0982747  56.7494743  40.6027684  22.5002229
  56.7045494  42.0130313  21.9523860  17.4044404  71.3248720  11.5437360
  18.3409479  71.3083359  11.7409974  17.0374102  70.6102118  12.0641026
  54.4509135  54.3968817  84.8003197  54.1868572  55.2017820  85.2460119
  55.2326935  54.1078958  85.2709990  73.1212730  64.9134423  63.2961688
  73.9309649  64.4605557  63.0605320  73.3983222  65.5983201  63.9047884
  57.8270373  58.7848453  12.9370430  56.9066784  58.7954150  12.6742511
  57.9233099  57.9759853  13.4397446  69.6150440  23.1504914  76.2856409
  70.2880010  23.2955830  76.9507042  69.5234176  23.9973017  75.8488929
  58.0549808  35.9779208  79.4003998  57.5152039  35.2191092  79.6219348
  57.7994977  36.6471472  80.0352985  84.8463845  56.2286311  11.0395464
  84.4929605  56.7599951  11.7529716  84.5668288  55.3363509  11.2442817
  76.2430225  17.4987041  57.4286927  76.6396992  18.3697707  57.4397559
  75.3030503  17.6625953  57.5050060  23.2689338  40.5968441  10.3023873
  24.1356801  40.2210712  10.1481879  22.7336685  40.2688384   9.5797981
  17.9808461  47.1868352   3.7582500  18.9014750  47.4488796   3.7555969
  17.5151709  47.9443923   3.4040106  79.4173740  48.3329267  84.4296567
  78.9785040  48.7896513  83.7120024  79.9920965  47.7020520  83.9961558
  31.5077534  38.4997259   8.5044779  31.6762117  38.2536563   7.5949157
  32.3027073  38.2447600   8.9727434  59.5640867  64.1358349  67.0049504
  58.9460474  64.3004421  67.7171047  60.2426564  64.8013999  67.1180793
  23.9570242  28.4423558  69.7019905  24.5070188  27.7062922  69.9702222
  24.2436497  29.1694053  70.2546898  72.2619781   9.7948801  -0.0581032
  72.2022254   9.4076749   0.8152429  72.9554939  10.4502914   0.0174195
   4.9023174  23.4269074  75.4238220   5.7501459  23.0461088  75.6527565
   4.8507063  24.2277354  75.9455909  65.5291573   7.2980999  45.3233145
  64.7904172   6.7109273  45.1629299  66.2570618   6.7143821  45.5369976
  38.1180473  59.3182020  21.9633797  37.7514674  59.4262113  21.0857778
  38.4777417  58.4311572  21.9651969  21.0889906  63.3587374  11.7132937
  21.7955850  63.7802521  11.2241296  21.2206478  63.6435766  12.6175972
  40.8894368  17.9434162  62.1828390  40.1390807  18.2312083  62.7028133
  41.6523982  18.2440499  62.6765405  69.8631053  45.1120515  11.8823197
  70.3181616  44.4605547  11.3487399  70.5440340  45.4763907  12.4478504
  69.0922720  15.4675357  40.6689489  68.1814314  15.2007016  40.7930495
  69.0871685  15.9633495  39.8501850  38.4281043   9.0442062  20.9518330
  38.8747173   9.2484472  20.1302161  38.4721909   9.8562434  21.4566931
  63.3196171  50.5031357  36.6852425  63.3760349  49.8889363  35.9532534
  63.8977258  50.1338864  37.3528330  72.8008391   3.0572370  56.3545855
  72.1836470   2.5837873  55.7967762  72.9123626   2.4938683  57.1203596
  70.2084675  71.3334371  14.3579642  70.9571985  71.0362463  13.8409425
  70.1062932  72.2557730  14.1232541  59.1169395   2.3694149  83.4045323
  59.9989452   2.6651059  83.1790000  58.7585274   2.0358309  82.5820396
  28.9089552  41.8915955  56.2048942  28.0356204  42.1443451  55.9055017
  29.0020417  40.9796777  55.9292629  15.3190204  10.6015964  12.5768673
  15.7177531  11.2793114  12.0310225  14.3855212  10.8132804  12.5777932
  13.6423253  25.9395827   1.7700213  14.1491914  25.8716341   0.9608850
  13.4882430  26.8781057   1.8780257   9.2306125  54.1250303  65.4688526
   9.0698988  54.8104992  66.1173396   8.9014653  54.4903389  64.6476074
  86.9367426  28.2871430  59.8992716  86.0831204  27.8580637  59.8405198
  86.7317570  29.2193123  59.9718880  22.4315517  28.5153575  15.4834513
  23.2273074  28.8837228  15.0996393  21.7594854  28.6482735  14.8149515
  75.9017682  60.7059569  27.3562938  76.0884013  61.5856229  27.6842993
  75.0784018  60.7987281  26.8770307  52.5381868  12.0304398  21.8496979
  52.7067006  12.0280148  20.9074511  52.5046756  11.1043451  22.0894008
  40.6993961  41.7815900  15.2934698  40.5817359  41.5520359  16.2152576
  40.0352181  41.2692399  14.8323875  31.5929443  44.3450175  40.0548438
  32.2327391  44.2675207  40.7625788  30.8486481  43.8182942  40.3460783
  19.0437391  17.8375691   8.1982526  18.7743131  18.0077490   9.1008490
  19.7525093  17.1989790   8.2762229   3.6109850  26.5301467  68.6112390
   2.9420060  25.8985857  68.3469861   3.2924048  26.8829878  69.4420469
  23.4317230   7.0215756  76.9795006  22.5779627   7.4361161  77.1039244
  23.5064920   6.9068648  76.0321449  56.2195661  16.4853445  35.2348318
  55.4718080  15.8939740  35.1489787  56.1880569  17.0273140  34.4464740
  49.4780973  32.9521722   2.2710766  49.9413829  33.2584399   3.0506908
  49.8284709  32.0755067   2.1131916  84.1627549  67.2545650  53.9793263
  83.2828608  67.1789357  54.3485125  84.1604180  66.6582108  53.2306020
  69.9202259  59.6512116  50.7722511  70.4206040  58.9288781  50.3926620
  69.3152709  59.9140578  50.0785847  69.3530609  27.1948498  39.6795895
  70.2226122  27.1595837  39.2810061  68.7535642  26.9755969  38.9663128
  36.7254390  -0.1330282  67.4942108  37.5845242   0.2885339  67.4720804
  36.1225736   0.5651151  67.7499077   7.4787389  17.4401504  88.6532944
   7.5921972  18.2388886  88.1381474   7.7923564  17.6723000  89.5273553
   4.8583480  38.4148732  14.0077675   4.4713672  38.8800724  14.7494328
   4.5762408  37.5071976  14.1207824  54.6934681  19.4815668  45.0803399
  54.0463149  20.1858353  45.1181620  54.3619207  18.8875405  44.4069597
  25.7783099  14.6478085  86.3742682  25.1296229  14.7156305  85.6736705
  25.5534060  15.3555168  86.9782541  72.7676046  37.7521856   9.9486569
  73.5916724  37.7998382  10.4332943  72.4255091  36.8796044  10.1430908
  51.3317083  66.0800109  82.9037944  51.4887350  66.7534463  82.2419340
  52.2046064  65.8463154  83.2194955  85.1913136  56.1363690  88.4525748
  85.7677603  56.8996105  88.4151130  84.6052946  56.2418032  87.7031102
  72.1828278  68.1112367  38.6365497  71.9328631  67.4937848  37.9491614
  72.1322997  67.6022625  39.4456381  78.8853295  25.8485534  20.6552554
  79.7144266  26.3036202  20.5077965  78.2248878  26.5410762  20.6337878
  83.3710576  11.3094065  28.8412301  83.0258925  12.1818588  29.0307557
  82.5949078  10.7522682  28.7827477  22.0909772  62.1868401  83.9460917
  22.6161095  62.6954032  83.3281666  22.4706247  61.3086310  83.9169636
  59.8526112  69.9225767  62.0137326  59.9846511  68.9746641  61.9976432
  60.1111991  70.1854623  62.8970532  13.3482874  21.6099161  19.0881243
  13.2589759  20.6591470  19.0226003  12.6700866  21.9547831  18.5073125
  25.5565217  50.5387397  38.4988065  26.0738044  50.3343662  39.2778328
  25.8509656  51.4113668  38.2379301  35.0779976  22.5920100   8.8617876
  35.2387665  23.0182313   8.0199322  34.2956135  23.0246462   9.2037423
  51.1533331  40.2399962   1.2997682  51.3369248  39.8299907   0.4545337
  51.8094975  40.9325450   1.3775905  30.2480538  58.7257630  37.9772297
  31.1148093  58.5635405  37.6048714  29.6418042  58.5534082  37.2568221
  77.2428729  11.8722240  21.3406134  76.4695550  12.3742923  21.0834389
  77.8551240  12.5287653  21.6727791   7.8855361  36.7624200  60.3951306
   7.2145156  36.0841182  60.3185156   8.3590848  36.5413658  61.1970774
  69.1056984  19.4931357  86.4919314  69.2388913  19.1528018  85.6072482
  69.6214114  18.9129019  87.0519320  57.3819828  49.1132471  29.2947789
  56.5367131  48.6727892  29.3828004  57.5853674  49.0568633  28.3611369
  28.8616405  59.0054595  40.6049388  29.7890900  59.1365127  40.8021554
  28.8464748  58.2525030  40.0141271  60.4184994  61.5360685  76.8385232
  59.6819477  61.2299902  76.3093356  60.5075912  62.4618689  76.6122753
   2.9956245  51.5508638  68.5213652   3.6109147  51.6086664  67.7904010
   2.1317453  51.5830441  68.1103797  83.8425878  47.7948918  16.2093252
  83.4712563  48.4871840  16.7562039  84.4608531  48.2481448  15.6361399
  22.8134029  30.5929528  79.9042240  22.1858577  31.3007421  79.7577548
  23.5156329  30.9971258  80.4138798  59.8971934  28.6752535  28.4711051
  60.0949789  28.1650433  27.6857400  60.7343357  28.7421290  28.9304006
  17.7268201  66.6867981  44.9430693  18.2953925  66.7747347  45.7080689
  17.8972584  67.4742129  44.4261936  83.5058963  62.8659628  47.3709205
  83.1895069  63.7334393  47.1187023  84.4521190  62.9064423  47.2321553
   4.5608879  39.2237580   1.2957641   4.4270156  39.8154481   2.0361781
   3.6861766  38.8920824   1.0930247  57.1825810  21.1665681  16.1279759
  57.9224053  21.7700831  16.1962505  56.6138671  21.5588063  15.4654463
  54.2223975  22.1564556  80.0985369  54.0836015  21.3006382  79.6928965
  53.3411634  22.4734412  80.2964723  82.5858801  18.5769816  47.7743462
  82.7363858  19.2932695  47.1574901  82.1485541  17.9019225  47.2554309
  67.9867392  56.2759692  61.4651447  67.2496571  55.8614876  61.9136386
  67.6926676  56.3718704  60.5592989   7.4385287  41.3353307  82.6249828
   8.3696007  41.1207703  82.6824339   7.0330849  40.5474802  82.2628518
  81.8638891  66.7589552   4.3222025  80.9350881  66.7348052   4.0920348
  81.9221787  67.4180470   5.0138904  71.9659180  12.6680929  47.2701016
  71.8283797  13.3144334  46.5775996  72.8733643  12.3852904  47.1569832
  49.6222254  56.5908902  61.6018583  50.3283038  56.5673580  62.2477154
  49.9609084  56.0920244  60.8584481  41.3371320  50.3121505   7.3061196
  42.1331814  50.6193586   6.8723450  41.5738134  50.2601054   8.2321353
  68.0330186   7.5445670  64.3833318  67.2097466   7.1499588  64.6709763
  68.6683642   7.2869424  65.0513119  81.4965822  20.4365896  75.0006723
  81.6344624  21.3785757  75.1000863  81.2011838  20.3318990  74.0962325
  79.4781393  42.6220012  64.6137577  79.2824536  42.7446894  63.6848408
  79.1884994  41.7296704  64.8037214  36.4420962   5.2261201  20.5838457
  36.2797162   6.1688888  20.5514166  36.2818680   4.9867440  21.4966753
  59.6287579  61.6909580   4.7457153  60.0080587  60.9207005   5.1688775
  58.7608313  61.4048003   4.4610243  53.8245879  50.8045458  28.0883977
  54.6737865  51.1433212  27.8049813  53.4386175  51.5191242  28.5949906
  83.0223634   4.8428017  85.7811056  82.0797425   4.7305228  85.9039512
  83.4008569   4.6441574  86.6375605  25.6600061  57.4984508  44.4455985
  26.0622935  56.8477130  43.8703273  25.3344862  58.1747124  43.8515120
  76.3731490  38.4661823  52.8150586  76.8119974  37.6984303  53.1813928
  75.9166896  38.1348659  52.0416854  15.5104228  12.5041080   7.7149362
  14.8186635  12.8861107   7.1747745  15.4661527  12.9890512   8.5390127
   2.3402725  59.2372980  66.1776505   1.9384261  59.3099467  67.0433718
   1.6489352  59.4998267  65.5698979  24.7255294  31.1132774  81.6915698
  24.9470912  31.1069543  82.6227531  25.4870756  31.5081076  81.2668482
  75.4066817  64.8822803  20.9520030  75.6369207  64.9122037  21.8806183
  75.9795234  64.2090539  20.5847832  62.2248058  31.2898547  61.0995264
  62.3555529  30.3418419  61.1197439  61.5305403  31.4221697  60.4539879
  17.9586063   5.5849034  17.5186932  17.4898649   4.8185500  17.1882148
  18.1339372   6.1127574  16.7396803  49.5764938  58.4937099  20.3447113
  50.2837358  59.1385741  20.3308995  48.8157932  58.9793077  20.6637116
  18.6889777  49.1798075  36.3311391  18.0224410  48.5052127  36.2012066
  19.1794014  49.1933974  35.5092317   8.3329036  62.7533592   3.2962508
   8.3117641  62.4643876   4.2085448   9.1270719  63.2837527   3.2313555
  12.0311555  42.1321187  18.1489665  11.9931778  41.2345594  17.8185472
  11.7236024  42.6693309  17.4188665  53.3968107  50.6781790  20.5585430
  52.7540350  50.3244098  19.9437922  53.3845659  51.6222456  20.4009989
   5.9301899  49.6657935  39.1937936   6.1344565  49.1495634  38.4140415
   6.3698554  50.5035168  39.0483777  19.8331074  34.4470163  21.1386853
  20.6214133  34.8280848  20.7519134  19.9862417  33.5024953  21.1129599
  76.1139124  51.6194400  56.5059255  77.0230115  51.8003413  56.2670835
  75.6307624  52.3915705  56.2116258   8.7208665  36.6046121  36.6282414
   8.7370347  37.4059771  37.1514857   7.9078401  36.6626085  36.1263885
  11.8477871  40.8553714  26.1709352  11.5645111  41.7161715  25.8626986
  11.0593339  40.3143025  26.1283003  54.3077744  40.8228364  88.5961619
  54.9730333  40.4006626  89.1396983  53.6554387  40.1395092  88.4420391
  22.9908745  66.9540407  84.0790332  23.1785516  66.0619416  83.7871972
  23.7788584  67.2221786  84.5517015  46.6966766  51.8835202  55.4564860
  45.8397307  51.4763621  55.5833632  46.4984528  52.7673963  55.1471283
  73.6501581  25.0122974   3.6038195  73.1257568  24.4509773   3.0327198
  73.6546133  25.8629928   3.1650377   3.0244479   1.1327228  79.8377319
   2.5158531   0.9308851  80.6231138   2.3907483   1.5229157  79.2357301
   9.3462791  49.0461621   5.5736296   8.5333494  49.5497230   5.6160982
  10.0281785  49.7034196   5.4348580  41.6745526  49.9628004  62.5525064
  41.5977961  50.3670865  61.6882767  41.1528517  49.1627173  62.4898403
  85.4046394  71.2622750  28.6941853  84.7658348  71.8279185  29.1280145
  85.0416704  70.3807870  28.7805811   4.0131133   1.2098760  20.6059463
   4.6782665   1.6380461  20.0669906   4.4761111   0.9628212  21.4064642
  47.3113321  18.8591915   1.4534209  46.7223121  19.0466530   0.7225683
  47.5438839  17.9372344   1.3432093  83.9652170   5.4843056  78.0584065
  83.4596585   4.7189438  77.7847941  83.3335911   6.0361983  78.5195951
  35.0969892  10.3358799  88.1864667  34.5130717  10.5143306  87.4492913
  35.9062711  10.7981744  87.9683416  20.3219733  18.6214546  17.2116672
  20.9636213  17.9572386  16.9599990  20.4521906  18.7357184  18.1530593
  32.6555671  44.4267378  57.6430432  32.0683168  43.7499895  57.3063228
  33.4317294  43.9475918  57.9332553  36.7596866  18.7642743  69.4051968
  35.9105533  18.4104295  69.6697687  36.5983003  19.6979504  69.2694204
  61.5834365  68.5854798  55.3564247  61.4935248  68.8080841  56.2830288
  60.7592384  68.1530801  55.1329078  71.2388082   5.6129280   8.8054839
  72.1658826   5.4613743   8.6216461  70.8289643   5.6659102   7.9420878
  76.8705286  16.4084275  15.3869365  76.4369711  17.1329900  14.9360830
  77.2167271  15.8607520  14.6823586  60.6284508  22.5841328  13.4609276
  60.4669768  22.2807167  12.5675650  61.3534082  22.0413552  13.7708648
  70.8098669  41.3599969  44.8345108  70.2702748  41.3486172  44.0439775
  70.2624774  40.9497430  45.5040541  82.2731844  14.0283975  86.8345990
  81.8753185  14.8765498  86.6382010  81.7642520  13.6899326  87.5712544
  75.6411091  57.1551086  48.7310366  75.3855570  56.2327344  48.7187554
  75.3495435  57.4957047  47.8853324  85.4089887  51.9422990  18.2177454
  86.1565492  52.1430082  17.6546283  84.6782902  52.4199231  17.8250791
  72.3752183  15.6512823  50.0563316  72.3242359  14.7332921  50.3226522
  71.7900649  15.7145246  49.3014622  10.9487285  36.1282904  17.8538228
  11.8958681  36.2648055  17.8766693  10.6152915  36.6388083  18.5916732
  86.3837203  34.2398513  72.3547654  87.0813549  34.7825156  71.9872693
  85.7727644  34.1114359  71.6291799  63.6850142  21.2913148   0.5309617
  63.2387605  20.4694562   0.3269078  64.0985708  21.5501824  -0.2925614
  48.7126518  55.2589458  81.6780558  48.6456286  56.1004600  81.2268425
  47.8583059  54.8478636  81.5463888  38.3935922  12.5822837  16.9366027
  37.6532529  12.9116147  16.4270238  38.5618081  11.7105765  16.5787455
  20.3523117  11.1918922  84.1563541  20.0987720  11.3619812  85.0635582
  20.2443337  10.2466910  84.0506789  13.1625812  38.2861847  12.5242982
  13.7668637  38.5567869  13.2155644  12.9202983  39.1015271  12.0852679
  62.6759904  42.4133204  14.3485391  62.6948262  42.3533965  15.3036758
  63.5700710  42.6541977  14.1059904  85.6092276   6.8692265  80.9981819
  86.2062682   7.6168301  80.9687994  85.0502489   7.0387727  81.7564884
  48.2075695  21.6853290  63.0185850  48.0506709  21.2338170  62.1892771
  47.6879291  21.1985931  63.6583457  33.6631103  59.4748516  26.4304863
  34.5947410  59.6945487  26.4358853  33.4619860  59.3068172  25.5098641
  63.0006874  61.7096334   0.2779893  62.4021280  61.0550271  -0.0818011
  62.4285123  62.3541044   0.6945280  52.6670995   0.8464368  77.8735914
  52.1540927   0.3087217  78.4768477  52.1556560   1.6494408  77.7743843
  40.4253237  50.7018850  29.4591028  41.1262710  50.0527250  29.5182303
  40.1622680  50.8536884  30.3668413   1.6215809  63.2270517  69.2231764
   1.1008515  62.8937144  68.4924515   1.6043648  64.1780076  69.1153882
  62.8478982  21.8673150  53.9745238  62.3252579  21.7677104  53.1788116
  63.6995208  21.4922654  53.7502279   6.3031365  35.3367776  12.2642769
   5.4335884  35.5140734  11.9055512   6.1485978  34.7029476  12.9647120
  70.4807203  28.1232256  87.7424143  70.7281640  28.6475016  86.9807464
  69.5241388  28.1553404  87.7547525  68.4522273  46.9443378  31.4332106
  68.9400126  47.7666407  31.3872179  67.6086927  47.1872618  31.8148769
  69.6364142  39.4576874  36.8874733  69.6754180  38.6145901  36.4359232
  68.9203911  39.9262337  36.4585127  47.0726799  55.3507281  77.8823989
  46.6201458  54.5190337  77.7419387  46.4708048  56.0116703  77.5401510
  79.1276115  70.6427063  36.7583540  78.2418285  71.0052703  36.7454048
  79.7000339  71.4096053  36.7790978   6.2336924  69.8907516  76.6627528
   6.0220471  69.9146239  77.5959560   6.0135052  70.7663210  76.3447470
  21.4728979  43.5569348  39.5999100  21.9050250  42.9770979  40.2270361
  21.0104275  44.1951427  40.1430892  14.0866713  45.3971851  63.5160307
  13.1539998  45.2754613  63.3384386  14.1347085  46.2314334  63.9828862
  66.3090599  61.1863906   9.9736103  67.0152762  61.1787857  10.6197006
  65.8022823  60.3968443  10.1634129  48.7985967  50.9891923  71.7498041
  47.9823655  50.4894974  71.7323809  49.4208835  50.4484741  71.2633734
  69.2222080  24.4309653   0.8673514  70.0773954  24.7822843   1.1152654
  68.7828227  24.2600970   1.7004039  17.9049167   7.8566982  75.2216568
  17.3455907   8.1633416  74.5079649  18.3755209   7.1091827  74.8528966
  49.5818598   4.9810395  46.8030695  49.9820258   4.9019456  47.6690043
  50.1848106   4.5226186  46.2178067   1.1919250  62.6940179  53.2978789
   0.3743610  62.3331741  53.6408260   1.3448718  63.4805327  53.8215521
  47.2136193   2.7817046   5.0640405  47.7170238   2.1652854   4.5322105
  46.4524374   2.2801107   5.3559952  71.9554642  36.2224726  46.3178901
  72.3693826  36.1995065  45.4551178  72.6073422  36.6338263  46.8854068
  81.9283169  22.4919607  68.6081555  81.6886382  21.7991373  69.2236079
  82.6870335  22.9162991  69.0088023  33.0673946  19.1206068   4.1333985
  32.3078927  18.8765849   4.6623994  33.1308844  18.4306996   3.4729222
  27.6448083  58.0301156  62.6043571  27.7871282  58.9473040  62.8383279
  28.3674377  57.5614864  63.0219996  11.8233740  45.0117977  79.8976494
  11.3461722  44.3648896  80.4172842  11.1676079  45.3688167  79.2987001
  32.6845142  43.2142188   7.2856094  32.8635781  44.1028156   6.9780972
  31.7766687  43.0507153   7.0300412  67.5107864  32.3224413  44.8803650
  67.8707620  31.4582234  44.6809239  67.2082500  32.6565794  44.0359390
  48.3372924  47.9917738  77.6589365  49.1261712  47.5948282  78.0281739
  47.6536500  47.8106975  78.3039763  57.2196361  14.9562532  72.9385561
  56.9251651  14.5291674  73.7429916  57.3678916  15.8674225  73.1915830
  66.9834584  44.9853561  82.9958429  67.4756709  44.3401174  83.5034114
  67.4059447  45.8205741  83.1962127  44.6361141  43.0992162  16.5091621
  44.4703045  42.1870677  16.7473302  44.5478722  43.1177782  15.5562189
  68.5665335   5.4708794  77.4176372  68.0414943   6.2611589  77.5442233
  67.9642892   4.7507318  77.6045086  53.2285719  16.0806990   8.6796588
  52.7848896  16.9270855   8.6248174  53.8171707  16.1669663   9.4295529
  49.9605032  33.3702610  20.1414135  50.8502759  33.7174757  20.0783401
  50.0562709  32.4334199  19.9699813  73.8056756  26.2516801  14.2843089
  73.4005836  26.9867209  14.7445776  74.6176328  26.6110951  13.9268482
  58.4614121   0.3735774   5.8338159  57.8860541  -0.3194038   6.1578100
  58.2582682   1.1302077   6.3837931  28.8765226  58.3091806   7.4340787
  27.9537210  58.5311799   7.5581164  28.9545717  58.1237775   6.4982551
  28.1923989  45.4732048   4.5682837  27.7061916  44.7701242   4.9989947
  28.2976719  46.1413815   5.2455498  21.0717527   4.0972144  16.9561487
  21.2436484   4.8437446  17.5300620  20.5435899   4.4588517  16.2444646
  74.8049368  60.4217262  73.5254999  75.3105372  60.9097656  72.8755633
  73.8991344  60.4877647  73.2231874  54.5663325  51.3699076  49.8451906
  55.2060842  50.6815937  49.6630547  54.0943380  51.0597873  50.6180285
  62.5988676  26.2799260  56.9640187  63.1834881  26.4843137  56.2341719
  62.0924527  25.5261370  56.6614002  70.0047803   3.0304810  35.9193543
  69.4405366   2.5876763  36.5532193  70.8715647   3.0249973  36.3254167
   9.0954287  40.5073037  53.5331147   9.9068911  40.1493880  53.1730355
   8.8735212  39.9188095  54.2546848  11.1113367  51.5117905  55.4154815
  10.2740567  51.0962785  55.2092198  11.5399686  50.9018083  56.0158384
  73.4641865  35.5723028  34.4729083  72.8279143  35.8558452  33.8164075
  73.2081079  34.6740943  34.6823767  36.7382798  56.2150439  58.7797166
  36.0137521  56.7935984  58.5418802  37.1525421  55.9946008  57.9454364
   7.2269958  50.4852714   6.8832633   7.1279701  50.1464474   7.7729959
   6.3304115  50.6301429   6.5809708  77.3568207  31.2006993  45.7985386
  78.2932763  31.2818693  45.9793538  77.2019146  31.7963887  45.0654697
  18.5038092  49.6862781  39.0089811  17.5762974  49.7823498  39.2251384
  18.5155569  49.5423588  38.0627353  25.3242671  60.2224699  55.3963074
  25.3397787  59.4204642  55.9185890  26.1212754  60.1796580  54.8679356
  63.3500076  35.2113803   9.0633377  63.9166047  34.4668273   8.8612478
  63.2030470  35.1512540  10.0072759  30.1747735   4.5452951  52.0702646
  30.8928234   4.8743483  52.6109680  29.8873377   5.3058516  51.5651246
  80.7259523  28.2671728   7.2158746  80.0079465  28.2701957   7.8488756
  80.3532715  27.8618396   6.4329021  61.3359595  41.0381748  66.2585170
  61.9119045  40.5978268  66.8835072  61.3626421  41.9596168  66.5163240
  30.3632968  57.3293181  80.6568862  30.1466789  57.4445563  81.5821043
  30.6926597  56.4325051  80.5979080   0.6531984  20.6315008  10.0219956
   0.5715948  19.7126604  10.2775440   1.2176249  21.0172197  10.6919772
  43.2610978  66.6010560  67.1415242  44.0609290  66.8824985  67.5856999
  42.7409707  66.1822755  67.8273248  30.6550090  60.2727353  79.8677825
  30.6643388  60.4370622  78.9248395  30.7437015  59.3228899  79.9462634
  40.3534261  55.0438968  75.2753301  41.2257920  55.0116319  74.8826871
  40.4972246  54.8271786  76.1965180  49.9220524  30.4065196  47.0965866
  49.1565492  30.9592045  47.2539908  49.5973047  29.5121683  47.2010212
  16.3800732  40.1517129   2.3397713  16.1277818  41.0458244   2.5703043
  15.6300124  39.6167116   2.5994139  80.1015641   8.1188894  48.3084718
  79.1881519   7.8538939  48.4165794  80.5125634   7.9095387  49.1472112
  35.5930576  18.2305810  72.0343255  35.0354155  18.1280013  72.8055223
  35.0222175  18.0178980  71.2959899  36.7582098  46.7910386  28.5322524
  36.3967822  47.2092613  27.7507848  36.0024184  46.6592721  29.1046585
  70.1838228  30.6299478   7.8349794  70.7316729  30.4865185   7.0632799
  70.4573617  31.4848948   8.1673556   7.1090103  13.8319942   9.6477570
   7.6635297  13.1426617   9.2822973   7.6996162  14.3494739  10.1951429
   8.2678928  35.0226080  77.9621032   9.2137656  35.1691662  77.9708836
   8.1553268  34.2148181  77.4610682  11.7360197  70.6663130  59.4143872
  11.6948006  70.9075313  60.3397772  10.9140532  70.2039719  59.2505469
  80.8294288   2.0230071  78.1137154  80.1902413   2.7354967  78.1082625
  80.6397626   1.5249946  77.3185790  65.2270638  39.5429894   1.8124416
  65.6624158  40.3341563   1.4950218  64.4613807  39.8653049   2.2879138
  59.2848975  52.2066777   6.6270904  59.2974873  52.7633740   7.4056548
  58.3581241  52.0133649   6.4858353   5.3140629  61.3433170  37.4301350
   4.8966119  61.0567457  38.2424424   4.6737431  61.9283600  37.0252313
  11.6671606  46.7085369  69.8393711  11.9296336  46.2403095  70.6319005
  11.4464571  46.0174750  69.2149071  22.2539966  45.8349303  20.0060377
  23.1543182  45.9866727  20.2934868  22.3251569  45.6887716  19.0627426
  28.6813687  69.6549463  66.3293910  28.3228972  69.4954481  65.4562986
  28.8266636  70.6005733  66.3595720  56.3325306  63.3873749  18.6083153
  56.7859141  63.7267850  19.3799862  55.6372491  62.8335011  18.9633355
  39.4493756   5.3940834   1.5529739  39.8605163   4.8569933   0.8756782
  40.1080722   6.0546330   1.7675078  21.9216795  61.7416404  58.2147925
  21.0877977  62.1147255  57.9289945  22.3206764  61.4044961  57.4126908
   1.0132659  29.8916135  74.6706290   1.2939496  30.7267018  74.2963617
   1.8154093  29.5047222  75.0215034  80.2525079  13.5038021  37.4715034
  80.7990741  13.7651417  36.7304239  80.2533992  14.2661400  38.0503575
  57.5094687  21.1094689   3.3100993  57.1086370  20.4372837   3.8612189
  57.3196096  20.8295730   2.4146421  55.9765506  56.4319293  87.5460466
  56.1484691  57.1607556  88.1422747  55.0889537  56.5898687  87.2243967
  82.8324948  62.4991470  22.3343019  82.2222822  61.8895543  21.9192485
  83.5253515  62.6233274  21.6856413  85.8223939  58.4667685  41.8739456
  86.2970545  57.6452988  41.7469941  85.3400716  58.5934265  41.0569054
  15.0398041  63.8916068  35.9518592  14.9315985  64.0399219  36.8912877
  15.0570727  64.7696812  35.5711769  41.8724448   4.6498284   7.8900375
  41.0296827   4.8691128   7.4926735  42.0969918   5.4182301   8.4147941
  69.8475808  15.5276940  74.4929594  69.2679553  15.9926966  73.8896032
  69.2552244  15.0551154  75.0777801  42.7900407   8.9637899   8.2392038
  42.4268649   9.7668138   7.8657230  43.1628360   8.4985881   7.4903095
  33.1123570  29.7719452  69.5127293  33.2228057  28.8278856  69.3996614
  32.7649326  30.0746288  68.6737353   9.2128820  26.5621482   8.8701205
   8.4351295  26.2290273   8.4225009   8.9185717  27.3685944   9.2935091
   2.9660763  27.7935037  71.1934116   3.5533166  27.6070556  71.9259536
   2.0902251  27.7809009  71.5793618  85.8731687  29.1186773  70.2424328
  86.1928442  30.0083300  70.3926245  85.3224105  29.1904909  69.4628560
  58.7533862  48.4797721  60.9187420  59.6310174  48.6078403  60.5587505
  58.1827005  48.4428192  60.1511587  83.6248719  12.5250791  65.0794658
  83.0960514  12.6959872  64.3001256  84.2789630  13.2239237  65.0830613
  63.1893220   1.0739144  54.3215968  63.3846364   1.2684810  55.2382363
  63.3682777   0.1378660  54.2320419  15.3731740  51.1357937  14.4182346
  15.0382010  50.2550937  14.2497340  15.2072655  51.2810004  15.3496965
  15.0247540  41.6579479  47.4657789  14.5877329  42.4316127  47.8217103
  15.9577055  41.8300056  47.5931738  13.5460963  36.8979567  19.0503413
  13.2682963  37.8137845  19.0681852  14.4787074  36.9263526  19.2640284
   4.2416829  58.5398792  15.0074027   4.6168805  59.2289288  14.4590695
   4.7298578  58.5950793  15.8289074   5.2130825  43.0605396  20.1921132
   5.7445640  42.5486214  19.5824420   4.3526261  42.6418010  20.1696484
  72.3611796  30.7225836  25.3857105  72.1041659  31.0793446  26.2359442
  71.5327794  30.5405934  24.9420162  28.7065050   6.3406964  87.9056620
  29.1241634   6.3158026  88.7665764  28.6188561   7.2733354  87.7088521
  76.2575130   0.5511564  35.8057185  75.7999562   0.5320820  36.6462599
  75.6213002   0.9234349  35.1950845  31.7872959  21.3475779   7.1215960
  31.5543600  20.4382665   6.9341779  31.6265302  21.4474939   8.0598939
  26.3807120   6.7200668  70.9231475  26.7248136   7.1668327  70.1496966
  26.0480873   5.8865827  70.5901357  62.7046695  23.9807094  74.4788934
  63.5564790  23.8832257  74.9045097  62.5479594  23.1344065  74.0600317
  67.1032580  52.0493623  61.6405921  67.7118781  51.5895903  61.0622989
  67.0508252  51.4972865  62.4207811  80.4444361  14.7120246  70.8121106
  79.7578821  14.2478155  71.2910526  81.2448561  14.2255227  71.0092793
  82.7530095  66.6041757  70.9918800  81.8308272  66.5430696  71.2410341
  82.7760387  67.2907974  70.3253576  84.5124995  14.2494663  22.3224174
  85.3269469  14.6893541  22.5661508  84.4184772  13.5463058  22.9650347
  20.7600286   9.5726988   7.9631748  19.9133113   9.6471211   7.5229895
  20.6427256   8.8577837   8.5887692   5.3617537  40.0420163  75.2603436
   5.1273012  40.1125144  74.3349821   5.2811439  40.9346072  75.5965212
  70.0746166  24.2518742  56.8768031  70.8044320  23.6871207  57.1310760
  70.0277544  24.1684553  55.9243972  20.7181581  47.8347893  67.7700042
  21.3374695  48.4989129  67.4673078  19.9666753  47.9231513  67.1837470
  13.3362085  71.7611538  51.9608318  13.8963488  71.0223766  51.7227498
  13.5379312  71.9276948  52.8815944  42.8583791  50.5386696   1.6595908
  43.6381139  50.1390770   2.0450402  42.6157356  51.2314852   2.2738891
  72.0622594  42.7717875  14.7477933  71.8830744  42.0839241  15.3888615
  72.8286279  43.2286019  15.0945379   2.8085040  40.8588709   5.0009479
   1.9511671  41.2076434   4.7568925   2.6261282  40.2598144   5.7248969
  74.5358585   3.4109904  86.0981261  74.7637733   2.8792795  85.3355186
  74.2303655   2.7785231  86.7484267  32.3218038  49.8114232  41.9520257
  32.8521343  50.5842099  42.1464022  32.5241982  49.6054023  41.0394340
  42.5203695  44.1617660  40.7550739  42.1459013  44.9864400  40.4453674
  42.2696798  43.5202852  40.0903266  43.5306861  28.8234699  66.5673334
  43.0984775  27.9859875  66.3998497  43.3624860  28.9988712  67.4931708
   2.3749846   3.9903400  87.7338982   1.8567276   3.5606107  87.0534761
   2.7026256   4.7876431  87.3177359  68.2919279  59.4363265  53.6371306
  68.1120172  58.6023772  53.2030885  68.7897086  59.9393158  52.9925780
  63.2124006  16.0429500  46.3967592  62.3273913  15.8030641  46.1220864
  63.3779051  15.5030778  47.1696616  25.8420713  66.6439538  22.4033074
  26.0983723  66.9191011  23.2835548  24.8871382  66.5882051  22.4383302
   7.1493812  49.8676886  87.8958804   8.0379937  49.5876848  88.1154197
   7.1771566  50.8225316  87.9569968  59.5563982  16.4059638  77.7352084
  59.1940015  16.1262373  76.8945815  60.0535549  15.6491193  78.0454557
  68.0142055  29.1488619   2.6455420  67.0812551  28.9827717   2.5104510
  68.0683169  29.5034226   3.5330050  62.9222748  60.0906829  24.5583139
  63.5076821  60.4461901  23.8896250  62.5352896  59.3159783  24.1505064
  82.0884903  31.3681248  54.1637192  81.3001728  31.1203102  53.6806298
  81.7956555  31.4566956  55.0707114  18.4389431  45.0432191  48.4875678
  17.7361848  45.2012155  49.1179643  18.1336934  44.2978242  47.9704209
   0.1639487  70.5730761  18.3963166   0.0366972  69.8911427  19.0558662
   0.6595659  71.2551245  18.8495334  28.8771571  57.2097418  33.4005334
  28.4566299  56.3822123  33.1669019  29.5929108  57.3006454  32.7715143
  26.7297680  52.5387541  76.8323131  26.8041225  53.4871687  76.7264214
  26.5897674  52.2088984  75.9447170  71.4557832  63.8491493  32.7725972
  70.7079667  64.2839435  33.1824220  71.4603674  64.1772940  31.8734132
  57.8651134   1.9729359  69.4191541  56.9287720   2.1395984  69.5274149
  58.1833771   2.7172354  68.9083133  41.4260222  18.9613407  16.1679855
  40.4808780  19.0703220  16.0628320  41.5247036  18.5348011  17.0191951
  66.7546846  52.0374688  56.4477120  66.7686524  52.9339527  56.7829036
  67.6462584  51.7169008  56.5839628   5.8182813  17.6260271  81.9572844
   6.2725810  16.8643036  81.5972553   6.3221938  17.8589849  82.7370502
  58.0808601   5.4998251  82.5644769  57.4991410   5.1320018  83.2297143
  57.9804347   6.4473392  82.6559296  48.9464571  26.7296067  55.7228388
  48.3785788  27.4543780  55.9844732  48.7292539  26.0234160  56.3314021
  44.3085649  35.6735436   3.5913756  44.8519690  35.4767223   2.8283519
  44.9001756  35.5781189   4.3377822  18.8517601  22.6091217  76.2747420
  18.3496963  21.8002682  76.3743403  19.2437059  22.5420624  75.4040450
  32.5762125  56.8540889  34.1203911  33.3985653  57.0851681  33.6884536
  31.9222822  56.8837145  33.4220149   3.5455461  20.6699602   5.1775419
   3.5499118  20.0749336   5.9273127   4.4094767  20.5608178   4.7801206
  50.4152501  65.5175496  66.3010247  50.3027543  65.4329226  65.3542328
  50.2907768  64.6300442  66.6372869  40.2280161  65.4997873  25.8151468
  40.6499355  65.0244100  25.0994428  40.1885484  66.4062333  25.5101390
  25.6027347  67.5017049  25.0405408  24.8859275  67.6293765  25.6619258
  26.3020114  67.1047195  25.5598159  74.6628886  65.0916161   3.0172180
  74.2781117  64.2163142   3.0622192  74.3856680  65.4316641   2.1664842
  57.0721445  41.9527676  74.5440706  57.9270797  41.5226344  74.5266622
  57.0379739  42.4509008  73.7274142  12.1705794  37.9004048   8.7469156
  11.5672600  38.5489517   9.1097164  12.9343302  38.4094030   8.4751850
  56.6519272  60.9473096  33.6124816  57.5581797  61.0850922  33.8880796
  56.1492969  61.5911572  34.1115356  81.9847736  29.2593261  31.8293420
  82.2965715  28.5223519  32.3545875  82.6841390  29.4136910  31.1942897
  49.1206243   2.8398577   1.9202116  49.4730331   2.3855246   2.6854705
  48.1877055   2.9399077   2.1096432  57.1390956  18.2444426  85.3205829
  56.5170357  18.5371427  85.9866158  57.4779362  17.4149829  85.6573553
  74.5027444  67.1612672  77.0171803  74.8798288  66.9655965  76.1594203
  73.6875876  67.6229787  76.8207784   4.2542316  38.9968282  20.4458773
   4.0260509  39.9239842  20.3784443   4.0717412  38.6413800  19.5760580
  65.1037596  36.9512119  41.7751216  64.7559992  36.0758694  41.9456211
  65.4522079  37.2390407  42.6189049  40.6630603  47.7213912  67.9275375
  41.0514356  47.2756261  67.1747494  41.0760286  48.5849013  67.9338137
  34.0184395  54.7166257  40.3204185  33.4015306  55.4250536  40.5042257
  34.4815980  54.5818205  41.1471855  57.2407571  65.3069694  63.1854044
  57.3717527  64.4532254  62.7728596  58.1251872  65.6517546  63.3084427
  58.3521726  33.5092663  37.1194430  58.2394798  33.5955108  38.0660655
  58.4978523  32.5735730  36.9798465  75.0165833   8.2253171  71.5341268
  74.5797796   8.8589051  72.1033374  75.5182255   7.6717018  72.1325389
  61.7737907  21.9083912  57.1543056  60.9207797  21.9185852  56.7201395
  62.3947452  22.1528619  56.4680976   1.4558500  17.2091103  88.7666921
   1.9590629  16.3949437  88.7548043   2.0611973  17.8596526  89.1224748
   4.2158084  37.6976575   6.6350059   3.7670192  37.0299040   6.1164258
   4.1522382  38.4936340   6.1071688  56.9365116  32.9869347  54.5374756
  57.3183057  33.8031181  54.2145051  56.4552245  33.2425690  55.3243973
  59.5472613  40.0654202  38.9014169  59.2455462  40.5607451  38.1399361
  59.8261576  39.2225176  38.5436965  22.9136871  20.8535560  69.9584612
  23.6844552  20.2869407  69.9915578  23.2364388  21.6756517  69.5893787
   9.7574430  65.4788093  45.5129343   9.4963950  64.7786107  44.9147640
   9.1619126  65.3923445  46.2573128  78.8704008  14.8188102  20.6079516
  78.9220720  15.7251195  20.9115392  78.0931547  14.7971628  20.0496939
  51.8232567  36.2104346   5.0153370  51.7270955  36.4077894   5.9470215
  52.3826356  36.9104462   4.6787201  16.9265132  69.3051181  47.2686722
  17.3921496  69.6658081  46.5141411  16.0415996  69.1357415  46.9454519
  64.2559770   0.5961471  77.1144214  64.0803909   1.5196408  77.2948675
  64.2201721   0.5275052  76.1603574  57.0172427  49.5805978  56.1309404
  56.0777475  49.6018008  55.9489208  57.4289931  49.7647634  55.2866795
  50.9226342   2.7159969  71.9597017  51.2134350   2.5859722  71.0570609
  50.1057653   2.2209250  72.0218373  83.4349505  19.3875060  50.3294539
  83.2092342  18.8378137  49.5790390  83.4821459  20.2739688  49.9714202
  47.6583338  34.7077437  40.2925550  47.9075867  35.1366587  41.1111738
  46.7094471  34.8226708  40.2411980  13.7527473  55.5048980   4.8668876
  13.0691785  55.4542036   4.1987591  13.5909953  56.3365054   5.3124179
  53.9222099  24.2723073   5.7301528  54.3943565  23.8148559   5.0344175
  54.3713311  24.0132736   6.5347792  55.7586096  70.4086548  83.1884449
  56.6653087  70.1046881  83.1468185  55.7256316  70.9571852  83.9721915
  16.7111813  55.4400374  18.2609032  16.6048279  55.2544275  17.3279135
  16.9752747  54.6030978  18.6430271  40.4399559  43.9311505  78.1193513
  40.2788141  43.4781700  78.9470432  39.6857085  43.7085010  77.5736683
   0.9797305  25.6208795  63.2123561   1.1969744  25.0579011  62.4693269
   0.0687943  25.8739801  63.0627996  61.7876297   7.2097017   8.8352893
  61.7752431   7.3312697   9.7846573  60.8640655   7.1818219   8.5853217
  19.4341922  66.7334333  32.7832698  18.9168172  67.4202708  33.2037567
  19.7084420  67.1163736  31.9499777  50.2325899  68.8050061  57.3067628
  50.8721890  68.5317442  57.9643894  49.7772927  67.9982585  57.0657348
  35.2680779  43.6573700  60.8619174  36.1416200  43.2966773  60.7100725
  34.7428215  43.3278844  60.1326871  38.2384665  13.2273712  80.9267583
  37.2826859  13.2421750  80.8767968  38.4273444  13.0350137  81.8452111
  27.3951754  66.1013255  38.1254115  27.1229412  66.9752693  38.4053090
  26.6719155  65.7875560  37.5825711   2.6355442  56.4789897  43.4153150
   3.3476986  56.9901494  43.0308885   2.3991391  56.9574493  44.2099350
  56.3868686   3.6804300  72.9178517  57.2503601   3.2735653  72.9890933
  55.9686946   3.2281305  72.1851939  67.2007036  11.9133096  50.8114415
  67.7901853  11.2726775  51.2093530  66.5328790  11.3850724  50.3741686
  51.1286379  51.2341652  16.4222485  51.9099134  51.5078767  15.9417045
  50.7332026  52.0525073  16.7225465  78.3367082  40.4927942  55.0694903
  77.8858191  40.1970196  55.8603431  77.6339255  40.6604160  54.4416119
  49.9537206  35.8266956  23.3646462  49.1176867  36.2526495  23.1753251
  50.5228673  36.5371103  23.6606441  29.8433417  28.1331569   6.2527873
  30.1711869  28.6578721   6.9831456  29.9793669  28.6841417   5.4819794
  75.4231791  63.4774145  61.9192407  76.1020489  63.0993760  61.3602645
  74.8672043  62.7351290  62.1561714  68.2676594  42.9515941  17.0218448
  68.0736031  42.1476733  16.5398849  67.4837663  43.1108123  17.5475757
  41.7772773  65.8223802  77.8603613  42.2306931  65.9346618  78.6958485
  41.0281849  66.4159724  77.9127142  20.1504529  54.4515872  19.8474105
  21.0207898  54.6728458  19.5160645  19.6679493  54.1567701  19.0750731
  71.4752159  20.3883608   8.2184327  71.8212075  20.5872230   7.3483893
  71.5872224  19.4421777   8.3102142  68.2031355  41.0413351  86.7471795
  68.1863225  41.9595748  87.0169663  68.5832094  41.0566939  85.8688061
  58.9109753  28.8073864  88.7541335  59.8346033  28.5942268  88.6210691
  58.5026948  27.9719795  88.9813650   0.1154350  50.5224809  35.4777395
   0.3388799  50.3384668  34.5653563   0.6770220  51.2594822  35.7179080
  36.9168073  65.9166799  34.2573227  36.9491690  65.2896515  34.9798322
  37.8117133  65.9378674  33.9183151  12.4822222  37.7529497  25.3358430
  11.8779776  37.8969303  26.0641217  12.6733867  38.6309787  25.0060658
  70.1837783   8.4391426  40.1750321  71.0479077   8.6934711  39.8512586
  69.8356467   9.2342563  40.5785547  10.3847904  52.3184626  34.3272504
  11.1345046  51.8069496  34.0230879  10.5822880  53.2157673  34.0587902
  53.2008930  55.4013106  48.2340924  52.5796128  56.1205077  48.3481023
  53.6633345  55.3494178  49.0705653  85.2039028  64.8005521  49.6550717
  85.8713133  65.3565370  49.2529825  85.5679966  63.9165920  49.6073017
  20.4269455   1.3385619  84.4405119  19.6784910   1.4154642  83.8487910
  20.3437324   2.0876551  85.0305685  78.5492795  37.8972309  57.7393500
  77.7278674  38.3111629  57.4744457  78.5989322  37.1022201  57.2085730
   6.2941701  53.3312803  85.2517157   5.3564378  53.1694201  85.1483171
   6.3931140  54.2712260  85.1002433   3.9744704  14.4219475  79.4071523
   4.7339019  14.7650343  78.9362095   3.2296436  14.8975322  79.0393424
  14.8969638  43.5381105  84.4189028  15.3796818  42.7794777  84.7470667
  15.5439417  44.2432666  84.3987484  22.3467611   2.5291420  53.4342539
  22.0274382   3.3990976  53.1945834  23.2886528   2.6456378  53.5587555
  16.6782807  61.9211083  69.4153148  15.9037069  62.0963935  68.8809531
  17.4100528  61.9722281  68.8003936  45.4689164  64.9554578  14.4557051
  46.1146862  64.8238866  15.1498968  45.0099383  64.1177709  14.3936444
  39.6815497  21.9268752   2.5054969  39.4677632  21.3952316   1.7387621
  40.4808965  22.3921820   2.2589889  71.1015649  31.8504692  14.2441765
  71.0782737  31.0086200  13.7892267  70.5343818  31.7271596  15.0053137
  38.0229762  29.2169579  15.0064244  38.4412014  30.0741347  14.9253842
  37.5896318  29.2415888  15.8595585  85.2785053  15.7219772  27.3753135
  86.0666334  16.0563331  27.8034398  84.7614616  16.5037522  27.1810832
   9.1877984  69.1472505  31.4670616   9.5403858  69.8278250  30.8937098
   9.1640010  69.5528591  32.3337491  56.7400155  66.7657149  18.6822340
  56.9599055  66.1531443  17.9803527  56.2716393  67.4754274  18.2427301
  26.2500928  64.3899110  29.5840899  25.7607061  63.5686554  29.5364267
  26.0015384  64.7682350  30.4274899  41.4200032  26.6294281  15.5678086
  41.7789204  27.5117294  15.4731790  41.6794038  26.1779184  14.7646385
  78.5831840  35.3787794  40.6858121  79.3619643  34.8436525  40.8386918
  77.8576196  34.8426970  41.0058181  81.2384905  62.7924976  33.3477971
  82.0251166  62.4567158  33.7775667  81.2801649  62.4367648  32.4601321
  62.9396460  56.5006086  33.1529620  63.2046350  56.1319110  33.9956213
  61.9900947  56.3824910  33.1278157  85.8567206  48.8110593  75.2625427
  85.3050201  49.5079999  75.6176937  85.4588708  48.5972228  74.4186106
  73.0571705  52.3185444  87.8922111  72.4729649  52.8396065  88.4430558
  73.8783137  52.8103220  87.8816983  55.7215033  28.6762190  21.2820462
  55.4689279  27.8591221  20.8521740  54.9078215  29.0091625  21.6605994
  49.1969741  25.2980256  15.2281697  48.4807478  25.1773699  15.8516229
  49.2283681  24.4767155  14.7375618  60.4672388  57.7745632  19.5853663
  59.6766360  58.1908756  19.2420543  61.1048245  57.8491517  18.8753290
  50.6503176  53.8750460  87.9786622  51.3660766  53.2908721  88.2289854
  49.9889376  53.7486659  88.6589831  77.4438940  49.8426638  21.6128604
  76.5134386  49.9591856  21.4207476  77.8406524  50.6864374  21.3963868
  53.9416023  32.1939792  43.8569605  53.9170547  33.0756896  44.2287348
  53.5470003  31.6392465  44.5298593  78.4931862  67.0002955   0.5489216
  78.3397984  67.8092156   0.0607083  77.8353069  66.3905156   0.2148628
  53.3427255  41.9195827   1.7592486  53.8400900  41.4395047   1.0971418
  53.9905823  42.4809538   2.1851311  22.7462398  13.8171245  21.5672277
  23.5806382  14.0629476  21.9667051  22.3956706  14.6376278  21.2206627
  82.9688346  44.2946567  36.3171366  82.5618976  45.1450131  36.4830526
  82.2810069  43.7777252  35.8977242  21.3632576  62.7707486  65.3165501
  20.6996594  62.6343755  64.6403315  21.0234756  62.3078385  66.0823792
  16.2238244   8.1329513  81.8269872  16.7884436   7.7098084  81.1801587
  16.5508640   9.0310215  81.8793989  67.1410705  26.4161337  68.5556433
  66.7006925  26.4666501  67.7072642  67.3835699  27.3206428  68.7538587
  48.8941281  35.4512488  68.7858884  48.8191366  34.5521435  68.4661732
  49.7984519  35.6991749  68.5936310   6.4319784  11.9724136  31.8114068
   7.0479377  12.6963665  31.9241811   6.5980296  11.3980146  32.5588856
  15.9724132  66.7522265  67.8283483  15.4202372  66.1127175  68.2781947
  15.5976907  67.6006699  68.0649041  42.9978478  15.7480485  15.7229867
  42.1114473  15.9675570  15.4360339  42.9224161  15.6381243  16.6708573
  64.6239822  16.7793784  68.0961496  65.1013895  16.6252000  68.9113448
  65.0665854  17.5286072  67.6974136  54.2399403  30.7144475  67.7586998
  54.0554345  30.8123281  68.6928352  55.1941852  30.6594107  67.7075190
  18.1675565   8.8673705  20.1996464  18.3049185   7.9430289  20.4069050
  17.4420138   9.1341486  20.7641364  15.0351206  60.6944534   9.9279050
  15.8054807  61.2075755   9.6840140  14.7900983  60.2340228   9.1252846
  82.8800614  21.2640951  46.3341721  83.4388026  22.0381020  46.2637916
  82.0908413  21.4929820  45.8432807  14.9933283  11.7079814   4.6350998
  15.6275975  12.3206141   5.0074109  15.2869851  11.5777027   3.7334208
  28.1717395  50.6851714  27.6881093  28.1902477  50.8271563  26.7416793
  29.0884779  50.7440291  27.9571041  76.0522343   2.4676755  55.1704988
  75.8695503   3.3834437  55.3808009  76.1128548   2.0339590  56.0216433
  46.8060313  35.8152576  70.8922179  47.0544485  35.0532918  71.4156002
  47.6204870  36.0942998  70.4738530  28.7026447  63.2804547  30.0579398
  28.3372096  63.2531080  30.9422142  27.9574972  63.4968170  29.4974272
  17.2671557  38.5262243  12.6118318  17.1802336  39.0354896  11.8060246
  17.0200591  37.6362631  12.3605464  80.2190686  15.5596217  56.6040793
  79.8494419  15.7087120  57.4743551  79.7844546  16.2041962  56.0456295
  71.9403868  39.8890761  60.9436345  71.0822157  39.4918873  60.7952595
  72.5242338  39.4305355  60.3394035  31.4312727  71.4036453  81.5698838
  30.9302839  71.3348347  80.7571678  30.8865858  70.9669081  82.2247187
   6.1183555  21.1889373  12.3893730   5.5256696  21.8532729  12.0377859
   6.5730674  20.8430567  11.6213655  59.5329863  23.2495642  16.3573949
  59.6787599  24.1949182  16.3215119  59.6749454  22.9510633  15.4590761
   0.4210668  15.4823225   3.0680190  -0.2391529  15.1012192   3.6468991
   0.7550772  16.2384248   3.5506970   3.9541779  20.1077405  61.1813312
   4.3368185  20.9068186  61.5436738   3.0096586  20.2293002  61.2779664
  66.2077010  69.8078525  65.4620638  66.2273935  69.3315725  64.6320027
  66.1770277  70.7302797  65.2082547  44.8475477  46.4614785  25.9958522
  43.9976632  46.6045050  26.4123515  44.6948989  46.6486851  25.0696320
  70.0272852  46.2950409  85.4885439  70.5863968  46.9613744  85.8880758
  69.2387354  46.2873274  86.0310949  80.0247718  34.0110312  82.1787146
  79.8977868  34.3635219  83.0595420  79.5931783  34.6427025  81.6034319
  30.2180775  44.9005377  33.7889664  30.7016292  45.5173376  34.3384822
  30.8867300  44.3031519  33.4539055  63.5700589  26.1767636  77.3847526
  63.3962270  27.1130979  77.4811489  62.7263424  25.7577941  77.5545731
  15.2847718  67.7650899  27.3960057  14.9847607  68.0075644  26.5199741
  14.8806576  68.4113863  27.9749915  61.3765646  45.5773387  41.1835139
  61.3929720  45.0053435  41.9508366  61.8407482  46.3664152  41.4630200
   1.6891595  56.5308335  35.1792244   2.5620048  56.9199801  35.2334261
   1.3415671  56.5974629  36.0685904  13.2244309  13.1988203  26.2108127
  13.7864686  12.4242091  26.1928439  13.8317497  13.9366993  26.1566795
  51.3519802  70.8583626  30.5602869  52.1548446  70.4321029  30.8601924
  51.4888223  71.7867397  30.7490245  77.0103505   5.8266153  21.8143754
  77.6151233   6.5623363  21.7184787  76.2093553   6.1165272  21.3778095
   0.9301946  52.3140763  42.4721087   0.9083494  51.3615773  42.3799112
   0.0092564  52.5721200  42.5110721  81.3265596  61.6926943  19.9782211
  80.7500800  62.4515612  19.8886431  82.0053547  61.8281951  19.3170793
  24.2697756  21.2451736   9.3928633  23.6033923  21.7067826   8.8838620
  25.0991723  21.5003931   8.9888881  84.2063243  40.8094678  12.4899591
  84.1017251  40.9292062  13.4338624  84.6152482  39.9485346  12.4016017
   8.5439031  31.6197334  24.1264079   8.1744073  32.0107073  24.9181429
   9.1011560  30.9106033  24.4470876  45.6444116  58.5946439  81.5172236
  45.1609578  59.3105187  81.1048794  45.9759144  58.9685272  82.3336481
   8.1277451  44.7406146  88.0843626   7.2265422  44.6297782  88.3873158
   8.0474404  45.2388404  87.2710029  42.5803079  32.0208516   8.6749251
  41.6250997  32.0822881   8.6808165  42.7634721  31.1765140   8.2628855
  47.5878515  33.1984211  66.7830791  47.6993989  32.2571155  66.9162432
  46.6940608  33.2893322  66.4527683  34.3847372  51.2366225  85.5225706
  33.9881027  51.8588330  86.1322975  35.0979802  50.8358814  86.0194839
  83.2861675  71.2626847  11.4925699  83.4300581  71.6198466  12.3689048
  84.0379737  70.6899478  11.3409398  17.7065136  64.1432079  65.1422721
  16.8787211  64.6116132  65.0346251  17.6941925  63.4745923  64.4574122
  40.3418878  35.1147123  84.9418799  39.9101232  34.2605476  84.9565055
  40.7064180  35.2139116  85.8213735  19.9756264   7.7169306  79.3430270
  19.0221764   7.7823115  79.3967872  20.2944995   8.5168375  79.7609992
  66.3234645  11.3236930  69.6029533  65.6010795  11.9239990  69.7874104
  66.1802336  11.0475868  68.6977008  66.9869948  27.2153040   7.5238208
  66.0631028  27.4408220   7.4152063  67.4577822  28.0159497   7.2923958
  11.7616234  59.3948936  52.8238743  11.1723896  60.0402976  52.4333758
  11.9460854  58.7790125  52.1147226  72.1288424   7.7485577  51.8062878
  71.3973095   7.4645935  51.2581494  72.6485080   8.3160862  51.2369980
  27.8659501  52.4130622   0.6070643  27.4664489  52.6833408   1.4338533
  27.3815830  52.8963936  -0.0622720  37.9302203  65.0302491   3.4154585
  37.7482828  64.1578721   3.7648709  38.6323629  65.3690568   3.9708295
  22.1796919  53.1909139  54.2844115  22.4508568  53.5317381  55.1367848
  21.7886112  53.9426680  53.8392671  60.5384215  21.0995999   2.4464224
  59.6126860  21.2636454   2.6262410  60.5675860  20.8898804   1.5129349
  19.8413334  17.2755272  77.8605662  20.5568243  17.1004671  77.2492899
  19.4952835  16.4100686  78.0784258  83.6800709   7.0979561  65.1725250
  83.9232772   6.3320199  64.6525018  82.7272317   7.1469857  65.0955490
  14.2637399   9.3421123  86.0663145  13.3942525   8.9626227  85.9389919
  14.8523148   8.7582035  85.5879194  87.0106558  12.5581659  87.9456681
  86.2707303  13.1424426  88.1110852  86.6096475  11.7051689  87.7788737
  40.3718618  27.0192561  66.5049996  39.9288136  26.9742083  67.3522958
  40.3712987  26.1167257  66.1861417  69.8226215   1.7390682  85.9509641
  69.7038850   0.7894764  85.9307454  70.3425778   1.9320946  85.1708243
  70.1103036  56.5896156  43.3094693  71.0058628  56.4200577  43.0171414
  69.8895486  57.4380913  42.9252974  37.5363491  71.4031104  32.4063209
  36.6642702  71.0094440  32.3791745  37.4829511  72.0556219  33.1046111
  74.2196625   5.7490084  46.1117443  74.7234801   5.0423026  45.7080532
  73.4127854   5.7913480  45.5985304  69.5067899  54.4110504  26.0473996
  68.9178409  54.8811300  26.6376505  69.5001573  54.9271949  25.2413086
  33.3614253  61.6726432  34.8704029  32.4998981  62.0262014  35.0917606
  33.8945969  62.4439376  34.6778806  72.4761331  18.8323526  74.0919205
  71.5692220  19.1308362  74.0237172  72.9969365  19.6333485  74.0336002
  53.2640133   2.3316494  84.6596675  53.4980929   3.2152747  84.9436480
  52.4235936   2.1584991  85.0838673  42.4310283  49.5742844  32.1731619
  42.4478014  50.4607890  32.5338006  43.3399236  49.2782106  32.2229769
  38.5601791  71.3700630  77.2314932  38.7100422  72.2343027  77.6147198
  39.4285902  71.0762680  76.9562143  72.5915680  48.4118585  29.7568580
  72.7612616  48.1884890  28.8416848  73.1516620  47.8176171  30.2562613
  83.8567409  12.3870830  84.9309641  83.2867415  12.5837559  85.6743700
  84.1273526  13.2447249  84.6031660   4.1830016   7.8609918  88.9973336
   4.8826709   8.4733740  88.7699955   3.7404787   7.6840462  88.1672158
  67.4777184  34.7560503  86.7373517  67.9507746  34.2961674  87.4308626
  66.8141292  34.1311926  86.4450606  65.2284060  42.9495763  13.2990860
  65.8839573  43.5885458  13.0194392  64.9610073  42.5115045  12.4911115
  42.4274120  52.2085605  33.0508761  42.8763003  52.6409111  33.7773773
  42.2851423  52.9043695  32.4091277  77.6832861  22.6090630  43.7547859
  77.3923028  22.8096720  44.6443457  77.7317136  23.4608567  43.3208111
  69.3680416  35.3434221  18.5278787  69.3933308  36.1287730  17.9812378
  69.7298011  34.6530729  17.9721991  23.4470268  18.4074627  46.8312307
  23.7262379  17.8287099  46.1217813  23.7672441  17.9826313  47.6269762
  40.3031408  30.8005566   5.3867366  39.6898183  30.7687046   6.1209387
  40.3273012  31.7236653   5.1347083  33.7911022  60.3314215   2.0108157
  34.3962115  60.9717903   1.6366468  34.1767346  59.4825107   1.7943210
  52.2573334  49.2637513  25.0067051  51.8025042  49.9475720  25.4983873
  52.7960192  49.7407119  24.3753905  64.8616272  52.8137312  74.3470324
  65.2553396  53.5471243  73.8744259  64.0060237  53.1400584  74.6257528
  77.4911910   1.8426252  52.9293122  78.2390232   1.5506018  53.4505618
  76.8269842   2.0810697  53.5760003  82.8293353  65.8876297  19.0958793
  83.1814278  66.6945035  19.4716682  83.5165391  65.5785433  18.5055842
  37.6578502  10.2528889  11.2337979  38.1875651  10.7651231  10.6228560
  38.1400708   9.4328267  11.3395956  53.3770687  18.3934775  43.1639371
  52.8441768  18.8738027  42.5302607  52.8936615  17.5815849  43.3168415
  46.5595006   6.6631128  82.2609487  47.0433002   6.6257523  81.4358584
  47.1978099   6.4024022  82.9248938  85.9008136   3.8179071   3.8542815
  86.6139934   4.4458314   3.9696827  86.3325070   2.9636027   3.8482397
  46.9741350  70.6343033   3.8954226  46.7633345  70.0607196   4.6321699
  47.8843624  70.8904527   4.0441016  12.3161451   3.5001508   1.8079280
  12.2800652   4.1731969   1.1282670  11.4025523   3.2502942   1.9463175
  10.5531424  54.6383263  22.7135910   9.8280305  54.0861499  22.4211089
  10.1297993  55.3856192  23.1361614  31.8011537   5.0232104   8.6072283
  31.1910082   4.4226508   8.1791132  32.5548602   4.4781410   8.8331876
  50.3101113  65.9107456  63.4089531  50.6147294  65.0147015  63.5522871
  49.8235089  65.8694892  62.5856987  63.3238715  48.8236039  24.7839809
  63.3492847  48.1891035  24.0677440  62.4304213  48.7667624  25.1227251
  20.7050871   3.4164816  73.6811032  20.5110461   2.7761418  74.3656065
  21.6175604   3.6617550  73.8342871  48.0944966   0.7509649  76.5504927
  47.2711919   0.5225422  76.9820298  48.5216004  -0.0902645  76.3887917
  73.1383304  69.6333586  65.9194715  72.9666368  69.8270027  66.8410219
  73.1428469  70.4896004  65.4916149   1.7773641   5.6184422  18.8463067
   1.2102363   5.8804243  19.5715400   1.1730066   5.3414169  18.1576553
  36.8089934  44.4111852  64.6903703  36.4015466  43.6203639  64.3370706
  36.2383790  45.1237240  64.4024129  22.0769251   1.7714105  69.0188050
  21.7870136   2.5362721  69.5159669  22.8845664   2.0558770  68.5909894
   7.7776942  56.5693737  44.7779437   7.3901025  55.8145918  44.3348762
   7.9517180  57.1960261  44.0756230  12.5426283  10.5544191  12.1119190
  11.7240157  10.4449462  11.6280586  12.4598436   9.9626228  12.8596861
  53.2949309   6.3228218  65.2643004  53.6260893   5.4571507  65.5034223
  52.4705906   6.4047776  65.7438609  82.0466165  16.2831926  81.1010200
  81.2952453  15.6960105  81.1840280  81.8081430  17.0520125  81.6189758
  57.1986346  42.3437886  18.2568567  56.3982857  42.3334143  18.7818004
  57.8383667  41.8674385  18.7860686   4.1591385  51.7646469  61.5959763
   5.0713561  51.7605441  61.3060211   3.7263933  51.1216139  61.0343073
  57.1905018   7.0467562  88.2695528  57.0957040   7.3010547  87.3516326
  57.5453497   6.1583724  88.2365512  58.8284002  12.8382659  13.7339805
  58.2584779  13.4882241  13.3229150  58.4602730  12.7161999  14.6090886
  26.3936104  43.4263456  55.6799741  26.3827315  43.7046596  56.5957551
  26.7723682  44.1683703  55.2086211  55.5620389  18.5986251  48.0855368
  55.4352013  18.8585600  47.1730797  56.4705452  18.8315326  48.2768539
  19.2598591  26.0608786  88.3955764  19.5679047  26.7312008  89.0055009
  18.5999368  26.5059053  87.8638946   9.6069671  47.6012990  53.4856454
  10.2395224  47.3416795  52.8157922  10.1256519  47.6832347  54.2859481
  80.9228768   4.0790059  17.5984263  81.3360486   3.2218542  17.7024070
  81.5880593   4.6146779  17.1662001  46.2396412  47.3150512  30.0778085
  45.7400989  46.5436607  30.3454763  46.2196723  47.8905131  30.8424500
  36.7936651  50.9458811  22.5341583  37.3834093  51.0061114  23.2856940
  36.3906116  50.0814170  22.6146664   6.4573282  67.4234578  57.1280508
   5.5807251  67.6468851  56.8151945   6.9352110  68.2527131  57.1140678
  75.9426612  18.9010685  38.7403100  75.6747053  18.0256888  39.0198487
  75.5815805  19.4861621  39.4062815  31.2457449  51.3725440  43.9217364
  31.5941095  50.7398869  43.2935494  31.8158905  51.2898524  44.6861498
  48.7385948  70.9184944  85.3743798  48.3779242  70.0936142  85.0492319
  47.9870179  71.3769256  85.7501520  74.9722632  52.5792197  16.9592516
  75.8454855  52.2240161  17.1252187  74.5944067  51.9904778  16.3059222
   4.8030583  32.7843461  80.2763433   5.2125137  33.6070191  80.5442750
   5.3682960  32.4513548  79.5793103  50.2583889   7.6126778  59.2580743
  50.7896000   8.3872810  59.4425642  50.5277199   7.3409822  58.3806496
  81.0451802  27.0402392  57.7392363  80.8548679  27.9684548  57.6034830
  81.5523268  27.0159042  58.5506807  14.1657013   6.9991531  66.0430724
  13.2710875   6.6791559  66.1592612  14.5011492   6.5059619  65.2944276
  35.1734869  49.8564127  14.6573968  34.7265808  49.6378870  13.8396234
  34.5003682  49.7606889  15.3311771   2.1740409  59.1565172   9.2874174
   1.2505610  59.3712413   9.1558486   2.5790417  59.9859486   9.5408928
   9.6523489  19.8726413  55.5253510   9.1137365  20.6577713  55.6238362
   9.1776330  19.1946580  56.0061996  26.3109318  46.9699440  88.5791213
  25.9868830  46.8009470  89.4638044  26.7031610  47.8415997  88.6301542
  29.0234241  68.9693535  35.6889791  29.5267716  69.3304312  34.9592559
  28.2575945  69.5395336  35.7570343  27.3505865  70.8843968  36.5359052
  26.7005579  71.3009341  37.1017597  28.1346818  71.4246197  36.6338116
  86.0046601  30.8068714  51.4465390  86.1348211  30.4532160  52.3264355
  86.6589340  30.3598878  50.9095443  49.2219470   5.2236896  24.2077685
  48.5822385   5.8801172  23.9318921  49.1056117   5.1594483  25.1556984
  29.0126715  18.4392336  86.3514106  28.3724853  17.8990176  85.8882042
  28.8611648  19.3252589  86.0224168  18.4433861  23.7563539  57.2858313
  17.8474650  24.4674592  57.5212866  19.2758051  23.9968470  57.6926158
  60.6880460  19.4679955  69.0557872  59.7493737  19.3222266  69.1735903
  61.0419008  18.6011868  68.8566356  24.0984960  38.7232735  62.1068051
  24.3668161  39.2505887  61.3543591  24.8075683  38.8320050  62.7405446
   5.8890593  41.4205653  84.8366285   6.5146552  41.6883141  84.1634478
   6.1330437  41.9326917  85.6076213  81.6268101  28.4066112  45.0910230
  82.5803023  28.4656489  45.1510155  81.4682817  27.8792195  44.3081064
  39.1079673  47.8217780  32.4100740  39.8310905  47.3299600  32.7992264
  38.9652014  47.4054451  31.5600642  42.5339392  24.2814569  44.5473619
  42.2247121  24.6832426  43.7354637  42.5090281  24.9903744  45.1900494
  51.3162902  60.2857399  83.5218686  50.6083565  60.9298780  83.5097119
  52.0561687  60.7503583  83.9129458  28.0569420   0.8648893  48.3409464
  28.2766200   1.4064722  47.5828822  28.8920144   0.7298328  48.7888813
  34.5895918   9.4545451  83.5532001  35.1989587   8.7460052  83.3461371
  34.9800491  10.2310893  83.1522586  17.3742860  52.2508249  36.6903043
  17.6932462  53.1386767  36.5283931  18.1681683  51.7273070  36.7994457
  33.0191243  47.6465328  24.1924443  33.5797554  46.9107612  24.4385436
  33.5833159  48.4154302  24.2743985  19.8548659  29.3572264  17.8223076
  19.6839971  30.1470687  17.3092922  19.1697881  29.3529569  18.4907999
  73.1611616  21.7504044  86.0686443  73.0537553  22.4326196  85.4058637
  74.0685757  21.8400985  86.3598256  27.0259653   6.3879004  85.4110669
  27.0167161   7.2941741  85.7189860  27.9548816   6.1740973  85.3236907
  57.2177290  63.7482628  81.6430372  56.8065925  64.6106764  81.7017006
  57.4042520  63.6347417  80.7110747   4.9548358  56.5324154  85.9031623
   4.7527894  56.1832970  85.0351038   4.8882742  55.7766084  86.4867351
  67.3327935  19.1224814  60.9507813  66.9202058  18.9459431  60.1053007
  68.2618068  19.2290914  60.7463301   1.4397505  44.6024246  34.9423807
   1.4738913  44.1400502  35.7798030   1.5314468  43.9133165  34.2843886
  28.8289685  55.4913758  73.2306017  28.2274343  55.4573394  72.4868073
  28.3527545  55.9804944  73.9015824  29.5277585  71.0915035  44.9421113
  29.4496860  71.7156589  44.2206083  29.9456767  71.5889993  45.6450154
  83.7647958  35.9877569  83.0521835  84.6651670  36.2124622  82.8175112
  83.3123948  35.9036405  82.2128448  70.3545384  43.5860840  82.2426627
  69.7537354  43.6587863  82.9842703  71.0722697  44.1821952  82.4565437
  41.9315165  31.4034852  87.8178472  41.8963181  30.4634421  87.6408954
  42.4397208  31.7650229  87.0917268  73.9407939  48.1586066  82.0855478
  74.0550231  49.0119000  82.5039661  74.2212002  48.2960781  81.1807242
   0.8900175  33.1118219  78.8306920   1.2315363  32.3338700  79.2715861
   0.6091081  33.6866830  79.5426305  63.2079983   9.1306591  43.8706718
  63.3900584   8.2215927  44.1087561  62.9057681   9.0847622  42.9635983
  40.9299741  66.1758699  47.8601529  39.9745039  66.1497721  47.9114119
  41.1852231  65.2702408  47.6843243  37.0096105  70.7862769  11.9685072
  37.5619498  70.0333701  12.1789460  36.7604489  70.6523988  11.0540527
  74.5660855  14.0984506   3.0876035  74.2490709  13.6442744   2.3069259
  75.5198226  14.0649265   3.0134858  20.8988490  26.0390586   5.9362768
  20.6750627  25.2796740   5.3982373  20.3429646  25.9558247   6.7110648
  79.0134176  14.7331739  30.5977617  78.5413547  14.7176676  29.7652066
  78.4062756  14.3400440  31.2247062  48.0324376  69.0600443  17.1480306
  47.3439524  69.4982630  16.6478463  47.8759308  69.3254077  18.0542975
  54.4918164  44.7722366  35.4316164  54.3455652  44.4812786  34.5315131
  55.2512481  45.3521862  35.3754582  51.3835695  35.4359163  41.8186348
  50.5591273  35.3764139  41.3359481  51.2722125  36.1956559  42.3901478
   6.1526573  50.3068502  22.9181629   6.1438520  50.2745682  23.8747779
   5.3750076  49.8148112  22.6547423   6.7465401  54.7683517  11.1217525
   6.4095582  54.7050782  12.0154367   7.4938653  55.3626602  11.1890898
   2.6561652  22.2672993  87.1508265   2.3840077  22.5792253  88.0138817
   2.0819336  22.7266798  86.5380791  27.3484567  62.0984076  23.8849023
  28.0365387  61.7206457  23.3371149  27.7222545  62.9184544  24.2074395
  31.0664536  57.2986274  31.7882026  31.0549075  56.7316272  31.0170934
  31.5448363  58.0779558  31.5053086  36.7567393  27.7456609  70.6532533
  36.4008929  28.2683406  71.3718707  37.4321724  28.3014158  70.2644623
  11.3139802  57.2212897  60.9823093  10.4462651  57.3705862  60.6067923
  11.5667090  56.3545702  60.6642569  76.9518975  52.7620304  32.0927223
  76.3715129  53.2968146  31.5510662  77.8070302  52.8314789  31.6682736
  23.0980738  27.5089640  76.7442283  22.3313677  27.9649400  76.3971268
  23.2943046  26.8382198  76.0901429  44.5590970  19.9459444  25.4976695
  44.5298816  20.8536686  25.1953202  44.2432816  19.4349796  24.7524128
  52.6199165  50.1552223  13.0146360  53.5648737  50.2006272  13.1603278
  52.2712995  49.7746436  13.8207737  85.5595561  36.9418984  71.1609897
  86.0859162  37.7410706  71.1833663  85.3257736  36.7833944  72.0755684
   9.9307833  39.8299915   9.8406971   9.7541813  40.3926690   9.0867492
   9.0818772  39.4430331  10.0548317  23.5624020  15.7267242  51.5745405
  22.8707807  16.1712909  52.0646959  23.8735867  15.0421581  52.1667948
  27.9460426  38.4416229  73.7944186  27.7901683  37.8607350  74.5390691
  28.3334501  37.8760117  73.1264132  59.0561309  48.8885517   8.7476166
  59.9904797  49.0380471   8.8920989  58.7715747  49.6384127   8.2251532
   1.5060079  12.4349554  82.0816100   1.2358520  13.3416204  81.9359864
   1.8901087  12.1626859  81.2482027  63.3746563  47.9553934  66.6774659
  62.4495588  48.1975621  66.7196663  63.3738238  47.0680812  66.3184282
  83.1167108  20.6780981  32.6235013  83.2670209  19.9530978  32.0168602
  83.8016627  20.5825864  33.2852794  13.5597824  64.5275529  89.0123076
  13.2821794  65.4383215  89.1106381  13.8742316  64.4690787  88.1101245
  15.1418446  36.2012715  80.1237364  15.4422536  35.6553264  80.8503245
  14.1870393  36.1442018  80.1600906  31.1598074  52.0090075  15.5069683
  31.1100406  51.1236309  15.8673339  31.9674350  52.3709647  15.8716004
  14.5473971  47.2672789  33.9947292  15.4182407  47.5963718  34.2173527
  14.7096228  46.5744842  33.3544557  82.3229897  65.0579823  64.5647990
  82.5826207  65.9456688  64.8114490  81.3908013  65.0132519  64.7775330
   0.8852120  66.5378101  17.2013640   1.2258814  66.4311401  16.3132212
   0.3568387  67.3349496  17.1610880  81.5619442  64.2500790  43.6665582
  81.2342658  64.5996145  44.4952220  82.2043035  63.5883851  43.9230098
  85.8658641  45.6262824  16.6991190  85.4743002  45.4194388  17.5477209
  85.6771364  46.5555402  16.5683763  70.5194984  40.7239866  22.9710937
  70.3156532  40.2006276  22.1959974  71.4461739  40.5526436  23.1388615
  33.4941446  60.3930174  54.1471956  34.2673879  60.7542672  54.5805836
  33.4569147  60.8476427  53.3056722  25.8359075  66.9633360  43.7508956
  26.3450980  67.7374881  43.9909901  26.3259953  66.2297024  44.1221467
  32.3332904  34.3474788  73.9694996  32.0432821  34.7165977  73.1353065
  33.2766495  34.5086462  73.9876832  48.9330421  36.3397835  18.8565419
  48.7348310  35.8209157  19.6361062  49.8879842  36.4050177  18.8486752
  37.2552602  63.9095068  30.1295869  37.6988608  63.9753380  29.2839412
  37.2844044  64.7977478  30.4851294  39.8925643  62.1943511  57.4225274
  39.6140929  62.9065369  57.9982677  39.6645305  61.3969456  57.9004153
  11.9433339  48.5607880  82.1312190  11.1311112  48.4326747  81.6412056
  12.3976493  47.7208304  82.0656396  22.9603784  30.5939605  71.5523503
  22.3851849  31.3590643  71.5530139  23.1183315  30.4122574  72.4787771
  79.5834528  12.5014148  13.2467925  78.8919611  11.8458226  13.1558532
  80.2488652  12.0744202  13.7863606   3.5258318   4.6200649  51.1876627
   2.9856974   5.3971013  51.0437843   3.1756731   3.9690229  50.5795796
  71.9941483  24.4114354  64.1140017  71.5078411  23.7287783  63.6517068
  72.3125180  23.9825616  64.9083189  70.8844393  34.7994993   0.3318099
  70.6615185  35.5210318  -0.2563473  70.6005843  35.0982944   1.1957426
  54.0994468  48.2689510  26.7512133  54.3801357  49.1594188  26.9621935
  53.2929928  48.3847431  26.2487633  68.1625005   5.0645837  42.1430703
  67.3961236   4.5601603  42.4159352  68.9093400   4.5495150  42.4483028
  63.9682432  25.2550908  32.1449133  63.8606978  24.5496791  32.7829259
  63.9347995  26.0569772  32.6665373  13.0347889  32.7838044  30.3064205
  13.7236723  32.2096176  29.9717849  13.2524368  32.9056235  31.2305533
  70.9640016  65.5202100   3.0497605  71.1723680  65.1451642   3.9054216
  71.6990741  66.1025858   2.8580871  69.6674530  69.2817918  42.5479028
  69.5138972  68.3663884  42.7817598  69.3519310  69.3550595  41.6471756
  11.9183665  30.8316471  68.5444697  11.5147423  30.1379953  69.0661656
  12.5403238  30.3745145  67.9784035  26.0390055  12.6800673  16.2057762
  25.1181699  12.9118792  16.0851246  26.0744857  12.2855482  17.0771703
  71.0862692  25.5515651  86.8806766  71.9856716  25.7567060  86.6252859
  70.6351249  26.3956800  86.8676099  47.0061984  27.5550909  30.3993411
  46.6511428  27.4540752  29.5161859  47.9540511  27.5979450  30.2729661
  14.3777936  59.2980413  46.5804934  15.1323856  59.1425751  47.1485189
  14.7123082  59.1591112  45.6944741  52.5571126  63.3085629  10.7716084
  53.0163669  63.3749745  11.6088102  52.2217740  62.4122220  10.7528226
  85.2780839  63.5199211  71.2710027  84.7706196  63.8269635  72.0222928
  84.7561163  63.7733359  70.5097126  34.6523471  35.4797698  19.5820776
  33.9332084  34.8609560  19.4550309  35.3760568  35.1135719  19.0737713
  59.3188357  57.8579740  77.7135790  59.1475623  58.4494508  78.4464176
  59.9666582  58.3186396  77.1803389  78.8617992  23.3870765  13.4914439
  79.2649063  23.6681708  12.6700290  77.9376135  23.6171997  13.3957567
  78.8980001  64.4586356  40.2697148  79.0437768  63.6757779  39.7385699
  79.2054613  64.2161382  41.1431531  65.8918115  54.3710594  62.3355340
  65.4782193  54.1836783  63.1781855  66.2286432  53.5249985  62.0406488
  56.2343738  43.3336597  32.9027321  56.6677768  42.5778367  32.5063418
  55.3341782  43.2898972  32.5802967   2.1665655  29.2768450  63.4622972
   2.7179062  30.0592062  63.4494023   2.2929949  28.8805031  62.6002296
  18.9015197  53.6831129  40.0128040  19.2851643  54.4180260  40.4912927
  19.5792039  53.0072908  40.0283111  54.3455522  39.3599629  25.5341400
  54.6703985  39.9283940  24.8358616  53.4940633  39.7298054  25.7674103
   6.4881600   1.6471254  72.5168983   5.5448848   1.7491177  72.6436318
   6.6482793   0.7130455  72.6513915  14.2249262  15.5708098  12.5548855
  13.8448220  14.6989602  12.4470390  13.5352084  16.0821212  12.9780662
   4.1012309  33.1602616  88.5578184   4.3634561  32.5065400  87.9096533
   3.2648706  33.4956282  88.2349213   4.4416726  70.4707555  23.8138051
   4.4955526  70.2972749  24.7536100   4.6323402  69.6273589  23.4032445
  28.2533628  44.4098397  12.5808468  27.6189344  43.6962382  12.6479681
  28.2975516  44.6037570  11.6445375  58.9824202  42.5313997  14.8760210
  59.8156308  42.6239542  14.4140410  59.2007646  42.6805943  15.7959659
  79.3686823   8.9909972  26.5627760  79.4747865   8.1422519  26.9924331
  79.0471852   8.7774942  25.6868262  13.7403146  48.4667595  55.0140997
  13.5910072  48.9962976  54.2308191  14.6348773  48.6794704  55.2800763
  72.2589384  29.7124160  58.0141322  71.4072998  30.1492915  58.0050021
  72.8511254  30.3331715  57.5896218  76.5684044  39.6780507  46.3228007
  76.5792029  38.8499581  45.8428238  76.8102602  40.3359065  45.6709085
  76.4764243  47.9600984  69.1169345  75.9484995  47.4986856  69.7685675
  76.5195234  47.3582493  68.3738652  74.6957767  24.7417328  69.0586376
  75.4494492  24.2841938  68.6859879  75.0196153  25.6224823  69.2474251
  46.7638102  61.7943209  42.7053785  47.1546361  62.0420401  43.5433058
  47.2660529  62.2827374  42.0531259  85.5590669  48.3615822  29.6152990
  86.5002741  48.1873415  29.6143061  85.2084416  47.7795155  30.2894593
  17.8320628  58.0891783  11.8641358  18.0794025  58.4873715  11.0295719
  17.0500677  58.5694643  12.1362405  17.4351491  12.2832008  68.2829216
  17.5021767  13.2011146  68.0199131  16.9674868  11.8610976  67.5622603
  48.4606826  71.1595769   8.8544165  48.8258853  71.6419298   9.5961675
  48.6183382  70.2394742   9.0660473  75.6925435  36.0435566  13.6132340
  75.6989514  36.3190516  14.5299091  75.7154745  35.0873513  13.6503488
  24.7738507  13.5477632  12.5414863  24.5632591  13.3758426  11.6237029
  25.5022485  12.9575642  12.7347057  44.9443002  45.8936622  43.3130501
  45.3675254  45.4725753  44.0612467  44.5049941  45.1786010  42.8526922
  50.6669536  52.6432442  39.8157346  50.0436114  52.7479791  40.5345579
  51.0678804  51.7876969  39.9691236  22.0625798  43.4816736  43.3391285
  21.4044455  44.0544059  43.7329164  22.6896533  44.0806261  42.9338303
  81.5869243  58.4037174  77.5954356  80.9915247  58.6136924  78.3149088
  81.1044444  57.7723270  77.0617774  47.2951387   3.8048414  34.2082146
  47.6822449   3.7001891  35.0773685  47.1940330   2.9107103  33.8818112
  54.6546588   2.9526690  12.1048029  54.1286792   2.4401518  12.7187275
  54.2596343   2.7813521  11.2499123  80.6766691  41.6433704  42.1139546
  79.7922079  41.2841093  42.0440140  80.7966491  42.1433206  41.3065598
  15.6006267  53.4541275  30.0541579  16.2239806  53.7204531  30.7299777
  15.3147596  54.2757368  29.6548208  66.0201621  59.4207679  68.0362262
  66.3378892  59.4026320  67.1334791  65.9217356  58.4988260  68.2740648
   3.7297527  62.9135579  76.6312623   3.0279162  62.5090226  76.1213519
   3.8190134  62.3534794  77.4023502  54.4556870  20.6593655  40.2808435
  54.1527338  21.5492741  40.4611595  53.6632596  20.1239143  40.3206272
  20.0977791  59.7471328  63.3711395  20.8724121  60.1320764  63.7810103
  20.4480733  59.1594510  62.7016950   5.7985103  69.3469307  36.0154495
   6.1700691  69.2500558  36.8922569   6.0049747  70.2476987  35.7660076
  59.0476258  64.7735214  85.2852831  59.0784057  63.9410973  85.7568278
  59.1460070  64.5310064  84.3645554  22.4773386  32.2585926  83.3311456
  21.7462310  31.8043467  83.7499225  22.4230081  32.0020468  82.4105673
  75.8485136  24.7380151  52.4071335  76.4472884  25.1475798  51.7826678
  76.3224360  24.7531837  53.2386377   4.5755609  61.0573177  17.9102638
   5.0329306  60.2452281  17.6921923   4.0090178  61.2229023  17.1567105
  73.1777703  37.2718546  59.8004527  73.4891324  36.7621522  60.5484426
  73.8369300  37.1278996  59.1214700  77.4735180  70.3139295  19.8262799
  76.7453913  70.5471171  20.4022024  77.7884777  71.1517988  19.4871528
  62.5320282  50.6279471  53.9477458  62.0506857  51.3878404  53.6204793
  63.2755828  51.0011177  54.4211400  55.4862178  64.6681607   6.9353286
  55.2381218  64.6552082   7.8597270  56.3270154  65.1253664   6.9193829
  41.9406711  57.5980108  58.7007018  41.6187000  57.1694641  59.4937429
  41.1504071  57.9071829  58.2578393  32.5250951  36.6657950  83.5803634
  31.6453318  36.3841731  83.8312368  32.6201378  37.5332874  83.9736264
  82.4612700  63.7340342  69.8013330  83.0704512  63.6823247  69.0648168
  81.7280663  64.2524096  69.4697745  24.8754716   1.1865657  73.1580269
  24.2428495   0.6811743  72.6475364  24.5565798   1.1295628  74.0587436
  27.4797419  58.3835978  24.6282733  27.9122595  58.6589762  23.8199867
  26.5580630  58.6042331  24.4938859   7.9594982  41.2019922  29.7189089
   7.7587690  41.4504045  30.6212564   8.0026584  40.2459491  29.7376331
  83.9969662  71.2924568  14.6317975  84.5867691  71.6103751  15.3153853
  84.2430975  70.3754243  14.5105428  37.4325609  53.3684663  67.0031894
  37.1634481  53.7901996  67.8192477  38.2864357  53.7530296  66.8050968
  81.9922606  30.4329229   7.7030735  81.5400853  30.6759877   8.5109652
  81.5682478  29.6205897   7.4263791  81.8855919  33.6611201  37.6288461
  81.0566691  33.6754584  37.1503973  82.3739259  34.4088533  37.2843802
  74.2172833  50.5077019  45.4346000  74.2283134  51.0587039  46.2172282
  75.1411685  50.3710227  45.2248699  13.2848124  19.9640259  11.1364091
  12.6764420  20.5703164  10.7138820  12.7759480  19.1631592  11.2625095
  -0.0890845  25.5310544  42.9760500  -0.0213830  24.8837660  43.6779517
   0.3473232  26.3085420  43.3243217  70.7863561  34.1636527  79.9537975
  70.2670519  34.6184603  80.6169001  71.2309697  33.4657532  80.4349284
  25.8697922  41.2476544  75.5901704  25.1024676  40.7571920  75.2953968
  26.5632768  40.9969293  74.9798853  23.1122605  51.1373410   1.1466051
  22.9513174  50.1975744   1.2312686  22.6909614  51.3791421   0.3218195
  84.9556619  38.6451156  52.8025026  84.8899543  37.6908188  52.7674022
  84.1663369  38.9560109  52.3591720  51.9736973  44.6474208  59.7160698
  52.1488720  43.8179520  59.2716295  51.8287830  45.2733778  59.0065562
  82.6000402  12.1366472   7.6803069  82.6897501  11.3724862   8.2497294
  83.4724586  12.5303220   7.6685507  63.2978539  36.5666874  19.3628206
  64.1262154  36.9657458  19.0967352  63.3508282  35.6670703  19.0401523
  28.6292614  44.1925961  35.8705753  27.8345196  44.7238038  35.8212220
  29.1957705  44.5447890  35.1840920  72.8633627   9.7633135  20.6653869
  73.6086557   9.8514914  20.0712532  72.3607820  10.5682941  20.5402841
  69.5857341  46.1126683  80.9868579  68.7899462  46.4614424  81.3884922
  70.2866301  46.3599495  81.5900399  74.5855008  17.4854047  50.7339807
  73.8405599  16.8854052  50.7699732  75.3485858  16.9295630  50.8920092
  43.9751972  62.7222847  44.8961116  43.6031066  62.4225753  44.0666813
  44.6403431  63.3623397  44.6428482  83.9510652  38.7809862  63.2025865
  83.2625051  38.3245749  62.7190519  84.6470137  38.1309528  63.2992515
  15.5389697  62.6380613  71.7994910  14.9472945  61.8892259  71.8729606
  16.1512954  62.3923633  71.1060059  81.1314517  38.7916724  16.0637710
  80.6497286  38.0583399  15.6811509  80.7005820  38.9489903  16.9039104
   8.3899719  47.9601587  27.2247434   9.1154985  48.4011672  26.7827542
   8.3496833  47.0959975  26.8150677  37.8135727  67.6071659  40.4269373
  37.6492984  68.2663859  41.1012331  37.6865345  68.0730812  39.6004893
  73.7965217  26.8262979  49.4907005  73.4350245  27.6825743  49.7194847
  73.6439557  26.2868502  50.2665560  60.9268533  25.1523035  81.1417659
  60.0362549  24.9095176  80.8885442  61.1352973  24.5700096  81.8723251
  52.4829377  67.7090697  64.1378167  51.7636156  67.2457845  63.7086614
  53.2652834  67.2135964  63.8955910  78.0281958  13.2945224  64.6162011
  77.7100918  13.3905053  65.5138809  78.9440402  13.0336696  64.7132408
  46.2285636   0.1918695  86.4522939  45.8807249  -0.6885861  86.3107380
  45.5529756   0.7748440  86.1059509  57.1236167  19.1297819  65.9140596
  56.4787964  18.7579563  65.3122420  57.1669065  20.0559916  65.6763763
  72.1405153  15.7488552   0.7348447  71.9235531  15.6930145  -0.1957685
  71.4628965  15.2316335   1.1702139  86.5476312  67.5983746  49.1691088
  86.9504479  68.4538871  49.3176647  85.6321824  67.7958133  48.9711102
  55.9114151  42.6185519  59.5705605  55.3577744  42.8056685  60.3286511
  55.4164176  42.9550546  58.8235831  45.7087216   8.4016589  84.0794713
  45.1364599   8.9806136  83.5759240  45.9789774   7.7290702  83.4543169
  54.6940917  14.1115667   1.0628565  55.4369240  14.2290488   0.4707164
  55.0923958  13.9130859   1.9103180  57.2982276  26.7045074  88.3500205
  56.6491303  26.9243224  89.0182914  57.1332697  25.7831323  88.1497988
  81.2043960  22.3964321  65.7849627  81.5693863  21.5739597  65.4585380
  81.6458698  22.5387826  66.6222613  31.4236401  15.1176460  11.3387389
  31.6869533  14.4233235  11.9427375  31.2433335  15.8698948  11.9025146
   3.4083356  60.0335462   1.8990134   3.3087122  59.0955865   2.0619204
   3.2973633  60.4391079   2.7589185  13.3472547  14.3892317  72.2698192
  13.0708194  13.9380014  73.0674448  13.7626870  15.1933700  72.5812825
   1.2832269  35.6692856  15.1502323   1.6647684  35.7559195  16.0238183
   2.0280255  35.4728026  14.5819882  55.2615856  54.6634407   0.3504635
  56.1074751  54.3489310   0.6695033  55.4446603  54.9918232  -0.5298094
  73.2064215  65.3840800  78.6065636  73.8469340  65.9457376  78.1700817
  73.0168875  64.6961869  77.9685104  57.7767715  69.5951827  14.2623032
  58.7184867  69.7267723  14.1523559  57.3929569  69.9187321  13.4472977
  41.3819978  30.6669078  19.7082613  40.5435456  30.5498235  20.1549389
  41.2105324  30.4035540  18.8041174  85.3337365  60.9374761  31.9459875
  85.5192025  60.6086181  31.0663929  85.8081210  60.3442423  32.5284519
  36.4177102  19.0962237   0.3116452  37.2644682  19.4694431   0.5564718
  35.9529934  19.8161389  -0.1149603   1.5845401   6.5283090  71.8530361
   1.0269349   5.7892469  72.0961317   2.2486438   6.5639033  72.5414626
  72.4780632  17.3422573  76.3569192  73.0936524  16.6215890  76.2230574
  72.4109201  17.7623021  75.4994311  83.3064717  20.8153387  16.9005956
  82.3809048  21.0473938  16.9761478  83.7415699  21.6369515  16.6728374
  28.3197796  45.9365903  74.2544629  28.4311563  46.0339985  73.3087680
  27.3974537  45.7053991  74.3644509  42.4742138  63.2671781  87.0409335
  41.8095779  62.5960532  87.1961180  42.1649040  64.0285785  87.5316764
  44.8379181  30.3228730  10.3469134  44.6025217  30.8560665  11.1062058
  44.4002607  30.7490752   9.6100012  38.7447197  44.9308670   0.1927307
  38.5593200  45.7533205   0.6459735  38.7476462  45.1643398  -0.7355547
  69.3695850  20.3455505  59.7896439  70.2275579  20.3466947  59.3652466
  69.0674024  21.2512318  59.7213883  27.8360631  33.2996124  23.7492522
  27.1121593  32.6879571  23.8836879  28.5896888  32.8718688  24.1558425
  40.2132696  39.9625962  40.3908106  40.8646843  39.3086799  40.6443540
  40.4629864  40.7496691  40.8749485  83.1925694  45.6369731   0.1428634
  83.0543588  45.8350334   1.0690933  84.1415468  45.5465403   0.0562859
  59.6967788  43.7161679  17.1827394  58.7720870  43.6498909  17.4210339
  59.7908357  44.6017946  16.8319539  68.0232768  17.0175720  15.2522368
  67.9818697  16.3050981  15.8901226  67.7264778  17.7889209  15.7351064
  45.3306163  18.2008392  82.7930169  45.7079311  17.4582089  82.3214603
  45.3864854  18.9300611  82.1754847  61.4316409  17.1963501  14.8355973
  62.0798472  17.2788360  15.5350660  61.5596126  16.3115446  14.4935824
   1.9701511  54.2264055  28.4320046   1.1479949  54.2986440  28.9168474
   2.6500394  54.3647058  29.0914413  85.1672656  29.8390835  86.4487497
  85.2467642  28.8875625  86.5159779  85.7855658  30.1774417  87.0963996
  76.2168217  64.6344743  39.6760365  76.2932371  65.0146756  38.8009139
  77.1212572  64.4906542  39.9545037  56.2396297  19.0918406  38.2576585
  55.4462156  19.5133606  37.9274362  56.6399393  19.7481860  38.8279170
  49.8681954  69.6694051  36.9008723  50.3450720  70.4065354  37.2822637
  49.0201179  70.0362831  36.6510784  16.8649236  15.3529951  80.9531637
  16.2264769  15.1908213  81.6476544  17.6893359  15.5027905  81.4159137
  63.6391232  33.6770828  54.0686301  64.2310084  33.1626190  54.6174750
  63.9686542  33.5523652  53.1786376  77.8910755   1.2009786  14.1661188
  77.0858287   0.7478887  13.9160809  78.5928830   0.6567896  13.8089685
  80.7688165  70.9678293  63.7829327  81.6465929  70.9548738  63.4013930
  80.7729798  70.2514081  64.4177203   6.2569445  46.1418160  25.0319004
   6.6667768  46.1477292  24.1668950   5.7288496  46.9398987  25.0521888
  18.2139069  55.3810032  25.5891448  18.6462378  54.5593480  25.8219635
  18.4616461  55.5319082  24.6769580  74.4125028  51.7025387   5.5013325
  74.5333780  52.6357371   5.3259424  73.4861298  51.6193629   5.7274890
  28.0070726   8.3104794   3.1343593  27.1083556   8.6048482   3.2823005
  28.4255083   8.3778195   3.9926184  62.1320038  34.1801178  15.7625344
  61.9053937  34.0338586  16.6809504  63.0771850  34.3311345  15.7701721
  49.4756070  52.1701436  76.3141591  50.3370678  52.4414717  76.6311737
  48.8593538  52.7299914  76.7864242   4.4965616  68.0146922  19.0052560
   4.1436600  68.4364194  18.2217776   5.0925193  67.3453038  18.6691228
   1.4296794  70.1542039  76.3785384   1.7290092  69.4042651  75.8645099
   1.6990611  69.9531279  77.2747714  10.8446466   3.0975917  29.7278437
  10.7973569   3.4386180  28.8347051   9.9397617   2.8763066  29.9479532
  19.3750926  54.1869644  31.0679721  19.0286538  54.7070371  30.3428953
  18.5978827  53.8555624  31.5178047   9.4067239  60.6360197  77.1439719
  10.1407295  60.1466029  77.5153729   9.5230600  60.5602293  76.1968956
  75.3233394  68.7088263  41.9490316  75.7829281  69.5235928  42.1519250
  75.1391026  68.3186025  42.8034402  47.2937780  51.2539900   9.6377973
  47.9231152  51.9447465   9.8452145  47.7397452  50.4427234   9.8810906
  72.4670817  24.0000489  60.2342074  72.2439053  23.7647614  59.3336165
  72.3041380  23.2023531  60.7375588  39.0146209  11.7560531   9.0208542
  39.0245436  11.6562028   8.0689281  39.3341817  12.6456340   9.1717133
  17.7948091   5.5317273   3.7625670  17.3289520   4.8098030   3.3406259
  18.6001104   5.1352947   4.0950770  39.8925317   7.5377165  37.8617747
  38.9816476   7.5748274  37.5699791  40.1401180   8.4532638  37.9910263
  71.7361657  50.9358189  59.9485488  71.7076385  51.2599413  59.0483473
  70.8217052  50.9335026  60.2313709  69.0323729   0.5573474  45.3077511
  69.8455714   0.8464165  45.7217307  68.7854056   1.2819429  44.7331204
  29.6835517  26.3693274  12.2400647  30.0397992  25.8565245  12.9655664
  29.4439138  27.2079252  12.6344747   7.3168502   9.6784002   1.7156310
   7.7022919   9.8902704   2.5657942   7.5898963  10.3955404   1.1434530
  82.1398435   8.9408690  57.4473857  81.3158407   9.2252607  57.0519459
  82.4152957   8.1939053  56.9159696  51.6314341  37.9768502  72.5352551
  51.8619995  37.3748327  73.2428188  51.3692600  37.4072456  71.8120350
  36.4908977  34.5272392  66.9320713  36.2421119  34.1380771  67.7704568
  36.5678573  33.7824580  66.3357408   8.3799607  50.8205365  73.7370620
   8.8430965  50.0938468  74.1537864   8.9974398  51.5509851  73.7744300
  75.1794577  28.4244181  18.2487350  75.9393976  28.9843936  18.4073247
  75.4583572  27.8349578  17.5480329  68.1553336   5.9468082  59.6322319
  67.3461147   5.4607076  59.7906711  68.7962305   5.5420433  60.2167389
  79.6279563  57.5979742  33.4836919  79.6271819  58.1986660  34.2289440
  79.8621682  58.1459489  32.7346256  78.3062330   5.8134471  40.8400257
  78.5185324   6.6112193  40.3555463  78.1160828   5.1649821  40.1621114
  69.0511631  50.5468648  39.2097164  69.2057311  49.6845865  39.5954839
  68.1990774  50.8141603  39.5542959  24.2078655  53.7710407  65.6545227
  23.9265976  54.4984475  66.2094998  24.3375075  54.1643920  64.7915629
  65.7434598  65.2257694  74.5704517  65.4138666  66.0843221  74.3049572
  66.1326843  65.3746351  75.4321796  53.4916624  45.4939700  51.5706205
  53.5078142  44.5387264  51.5116230  52.6745269  45.7466954  51.1409098
  19.2036919  10.4630216  56.2495732  19.0704937  10.0252590  57.0903192
  19.4152813   9.7546481  55.6415694  68.4354835  56.0871328  27.9711102
  69.2909290  56.4754072  27.7875683  68.0659430  56.6373135  28.6617424
  35.1596541  18.1091222   9.6696504  36.0708556  18.1829946   9.3859491
  34.6519810  18.1566163   8.8595614  68.4884748  59.1342929  59.1785519
  69.0838427  58.8478012  59.8711494  67.6166534  58.9110555  59.5046261
  19.4753229  19.9310035  60.0456942  19.2100033  19.1903883  60.5909707
  18.7656357  20.0272269  59.4106218  10.8468844  63.7280242   7.4201785
  11.5262659  63.7330744   6.7459033  11.0912567  64.4397585   8.0117427
  80.6932911  38.1207129  26.1581061  81.5217542  38.3851554  25.7581676
  80.9323859  37.4170308  26.7613449   1.3863217  18.1842090  26.3939473
   0.7662169  18.6358188  26.9664422   2.0661362  18.8344022  26.2169361
  48.8975004  39.8152071  21.9496584  49.5744750  39.2047195  21.6576958
  48.6778763  40.3212951  21.1674360  53.6885592  29.6004536  22.6050703
  53.1973472  28.7925767  22.7543271  53.0241449  30.2894671  22.6118311
  32.1431508  71.0870071  53.7937059  31.9746290  70.1471921  53.8613824
  32.9672440  71.2169702  54.2629731  46.0517495  28.3856026  53.4284346
  45.5258160  27.5873024  53.4768348  46.1216139  28.6817840  54.3359737
  61.9613064  21.2280589  62.5861238  61.6399378  21.3156422  61.6887481
  62.9073767  21.1170778  62.4919640   0.3709759  43.3070519  44.3891396
   0.3284032  43.4996130  45.3258037   0.9313430  42.5333647  44.3289021
  48.5646376  48.6638632  81.5943933  48.3268502  49.4618417  82.0665366
  49.4974416  48.5476793  81.7749753   1.3852162  42.1640326   0.7517409
   1.1210785  42.4235515  -0.1309330   1.0642495  41.2669580   0.8437706
  81.2695469  16.7898361  14.0385130  81.0832623  17.4467446  14.7093342
  81.7576598  16.1079504  14.5000425  19.2076448  50.3724976  51.6893918
  20.1588424  50.3796957  51.7961776  19.0374614  49.6310989  51.1083605
  72.3985573  30.3404207  63.6988547  71.6552502  29.9045561  63.2820232
  72.3432051  30.0812024  64.6186231  15.4241618  34.5652439   9.3401375
  14.9738095  35.3546892   9.6404554  15.3662074  33.9604093  10.0797646
  24.6380835  63.2634583  55.2540736  24.3604657  62.3613941  55.0945735
  24.5298001  63.3841311  56.1974424  18.4610252  70.7698964  -0.0239268
  19.0345229  71.3235862   0.5059409  17.8742294  70.3571894   0.6097730
  53.0459607  38.6052345  18.4807278  52.4101494  39.0003319  17.8841762
  53.8203739  39.1632728  18.4092494  34.8306503  39.5405899   7.9153292
  35.6436988  39.9063164   8.2637947  34.6418738  38.7929891   8.4825049
  82.5520019  49.4400009  74.9674425  82.1132632  50.2734812  75.1378856
  82.5478246  48.9899789  75.8122470  12.4285293  35.8180305  80.0722694
  11.9697010  35.4062093  79.3400728  12.2586442  35.2406525  80.8165848
  22.9751952  38.1985017  76.3075930  23.8031819  37.8974251  76.6817891
  22.3105869  37.6496983  76.7239371  13.7088768  69.8736677  66.3441025
  12.8926280  69.5483872  65.9644153  13.5805669  69.7968699  67.2895498
  68.4158334  40.4423240  49.6454338  68.1364432  40.1166760  50.5010776
  67.6157867  40.7842726  49.2463996   8.2219744  54.4269988  74.6646227
   7.8209272  53.7121035  75.1589078   9.0266407  54.6269717  75.1429059
   0.9092356  27.4648200  84.9645765   1.1400180  27.2993834  85.8786892
   1.3880940  26.7981050  84.4722173  60.2883283   7.7949027  32.8080786
  59.5580029   8.3953695  32.6587591  59.9764446   6.9519172  32.4789345
  50.5753363   3.4134915  34.4016115  49.8654714   3.3462706  35.0402076
  50.8706684   2.5117015  34.2759705  55.9844313  40.6069068  42.8429087
  55.4772177  40.4183973  43.6324848  56.2520941  39.7468100  42.5191466
  37.1394046  42.1265626  40.0769958  37.7874971  42.7635169  40.3778232
  36.5412951  42.0254864  40.8174554  39.7750450  44.2205220  12.6834860
  39.0419564  43.8428018  13.1694288  40.5500523  43.9706149  13.1866181
  19.5682185  67.5018701  26.4387223  19.4690609  66.6335828  26.0482395
  18.7302852  67.9349111  26.2757037  12.9097717  67.4488107  25.1192613
  12.1834486  67.9396347  24.7348418  12.4996045  66.8951005  25.7836405
  10.6490099   0.7282093  89.0209669  11.2181628   0.0237999  88.7109600
  10.4511955   1.2392401  88.2361429  69.5177051  65.2138398  12.6100105
  70.0602562  64.4253249  12.6207032  69.5260782  65.5226367  13.5159940
  69.5781322  32.9066699  76.0443753  68.9814589  33.2920186  76.6860288
  70.2856573  32.5327506  76.5695652  83.5230048  42.4168808   8.8426086
  84.4403043  42.6592955   8.9692126  83.4505729  42.2345195   7.9057362
  27.8098189  66.7519569  50.9644280  28.5679233  66.4004663  51.4312941
  27.1238068  66.8081230  51.6296082  54.4891108  25.9034568  62.5256030
  54.7087671  26.4602449  63.2725769  53.7129960  26.3120821  62.1423235
  40.7912903  19.6002473   3.9383410  40.2197927  20.3017942   3.6261644
  40.1954212  18.9640073   4.3337780  50.6762424  45.7147082  82.7960817
  50.2133791  45.5343939  81.9778665  51.0234686  46.5997421  82.6848129
  82.4682207  49.1413255  11.4653363  81.8900017  49.3120541  10.7218672
  82.7218701  50.0104475  11.7760145  71.5440045  59.1733390  33.6791105
  71.2575064  58.6861021  32.9066139  72.4257661  58.8454030  33.8557069
  21.1608719   9.3344798  20.8123645  20.6449251   8.5286574  20.8384593
  20.8969990   9.8133777  21.5980233  40.4530181  61.0037445  47.6240162
  40.0153031  60.9679332  48.4745190  40.6500876  61.9315030  47.4949441
   4.1432192  37.2021722   9.3075398   4.2055433  37.2976798   8.3571578
   5.0031247  37.4695656   9.6320320  14.1565198  45.6732078  45.0145535
  14.4662089  46.1737751  44.2597311  14.4256736  44.7730052  44.8317326
  37.5183457  60.9707856  70.5134503  37.7409050  61.8789599  70.3087099
  37.6863043  60.8888237  71.4522282   1.3811495  41.3519955  40.6397210
   0.9686006  41.2397952  41.4961359   2.0082038  42.0638567  40.7673472
  69.3013307  22.7874266  11.5660080  69.9510418  23.4549317  11.7863357
  69.2878811  22.2060919  12.3263374  77.4259780   5.5513512  76.5239634
  76.9933112   6.3866977  76.7006766  76.7768227   5.0436793  76.0370357
  45.1169031  24.5950511  19.5217816  44.4308150  23.9452043  19.3694199
  44.7324755  25.2064145  20.1500189  82.9709330  51.6564863  56.2544529
  82.7489707  51.3162784  55.3877215  83.8558577  52.0074380  56.1545882
  79.3113174  45.0210401  73.7398241  78.6807407  45.5901834  73.2985978
  79.2548748  45.2707255  74.6621599  43.7290179   0.4286961  84.7334238
  43.8454632   0.5654010  83.7932195  42.7855274   0.3103517  84.8432056
   5.1937513  53.1000063  56.2488675   5.9483089  53.6728352  56.3857679
   5.2000448  52.9159794  55.3095452  81.0208168  35.5661396  27.0830835
  81.3481792  35.2625900  27.9297968  80.5922509  34.7992271  26.7030725
  16.9110219   2.2516367  62.4062855  17.5640020   2.5344430  63.0464959
  16.7338172   1.3385331  62.6322768  23.2110700  48.5218132  63.6636084
  23.2039774  47.9851073  62.8710630  22.9474648  47.9219923  64.3614330
  58.4723100   9.4100354  54.2380253  58.1322812  10.2451476  53.9167779
  58.0019268   8.7487284  53.7304383   0.9767103  13.1258396  20.1255457
   1.4586935  13.7606689  20.6555605   1.2791469  13.2820087  19.2309088
   6.7064145  35.7811899  24.9852403   6.8143475  36.6388657  24.5741753
   6.5807717  35.1784367  24.2523458  61.1942352  10.2088344  10.0588032
  60.9862696   9.4615889  10.6197009  61.3545438   9.8241925   9.1970704
  30.2927765  36.8956101  11.9436674  30.7449155  36.9774151  12.7833758
  30.4640996  37.7250069  11.4975943  79.1671065  24.5157440  16.6242806
  78.7568519  24.5305099  17.4889799  79.7597060  23.7645947  16.6531316
  10.4756239  67.5016412   7.7305591  10.1406503  68.2465233   8.2297336
  10.8529267  66.9207912   8.3912312  41.1104857  41.5131621  42.6170385
  41.9077461  40.9934619  42.5144741  40.4327031  40.8721994  42.8315365
  72.5247315  40.1467908  42.5797877  72.9314587  39.6746144  43.3063236
  71.7403092  39.6386519  42.3731276  15.7953366  26.6187344  74.1155998
  16.2840811  25.9533421  74.5999692  16.0112417  27.4414575  74.5546254
  86.2407512  35.7389606  45.9070634  86.2657877  34.9274217  45.4001023
  85.6669856  35.5413338  46.6473124  10.5186980  26.2013276  82.4686433
  10.0472923  26.3723057  81.6533059  10.8700988  25.3174563  82.3613081
  75.8000707   8.5498535  21.4436026  75.7877237   8.5548355  20.4864952
  76.3875811   9.2678452  21.6792958  82.0623004  61.3323381  38.9118642
  82.0705037  61.1373055  37.9747799  82.3252601  60.5121847  39.3295154
   9.1053100  10.4920774   3.9529226   9.1132482  10.5996883   4.9040213
   9.7570159   9.8118019   3.7834039  22.9316602  16.4785569  10.4390832
  23.6200698  15.9118385  10.0910109  23.3211891  17.3528960  10.4445765
  25.2252794  45.0455971  48.1276810  25.4456391  45.8260328  48.6362020
  25.7696445  44.3535226  48.5030891  79.4740752  11.1646542  54.5444186
  79.2014030  11.9967853  54.9309927  80.1139498  10.8116293  55.1626142
  82.5358154  70.3909283  17.3092201  81.7186092  69.9943021  17.6110371
  82.4380600  71.3220319  17.5085233  69.1375524   1.9526192  60.8203983
  69.4983907   1.7829150  59.9502098  69.7650501   2.5498394  61.2275918
  65.1774614   4.4170083  74.3602911  64.8357192   5.2473738  74.0287232
  65.6100368   4.6472677  75.1825386  49.0767446  25.4035555   8.5824642
  49.7591555  24.8556775   8.1946795  48.3134549  25.2688353   8.0207961
  27.7149056  35.5455033  15.9050197  27.5327589  34.6289671  16.1124221
  27.1365042  35.7439470  15.1686069  82.1502161  31.2450200  35.9680245
  82.6648868  31.9880774  36.2830034  82.7944325  30.5523793  35.8215126
  74.9201985   3.9618692  59.6142327  75.1948567   3.0579355  59.4602893
  75.3208777   4.4587214  58.9009124  15.9962746   4.4045793  80.6467431
  15.2527675   4.7828326  80.1773249  16.1485020   5.0041811  81.3771788
   9.8117103  65.1266749  60.9245900   9.2250592  65.1911806  60.1709911
  10.6440166  64.8311434  60.5555924  19.0218353  52.7309648   8.0673898
  19.5784348  53.4995881   7.9423013  18.7925969  52.7499071   8.9965414
  14.2891767  57.1110906  71.1167096  14.5255936  57.1590444  72.0430137
  14.6648284  57.9031568  70.7323287  22.3474468  67.9491689  58.0446984
  22.3951268  66.9948838  58.1021288  21.5216620  68.1739524  58.4733984
  24.4396927   3.4178663  13.7790589  24.8527153   4.0696866  14.3454284
  23.7425257   3.8970454  13.3312001  71.3873156  60.0134126  68.4073148
  70.8740176  59.2403626  68.1724731  72.2277994  59.6624758  68.7016992
  32.6578065  58.8971676  16.8626397  32.6474264  59.1838438  15.9494360
  33.3342413  59.4346214  17.2747212  24.4352872  35.7912048  77.3155107
  24.6535834  36.0075741  78.2220221  24.4758597  34.8354898  77.2809495
  64.3983350  23.9615455  41.8004546  64.1378389  23.0547928  41.9622359
  63.8048445  24.2620884  41.1122142   6.1072163  64.8325847  45.2157776
   6.6766313  65.2187558  45.8812626   5.5111354  64.2686069  45.7085742
  76.3173656  16.5673262  88.4657164  75.9097735  16.7335283  87.6157297
  77.2399017  16.7872034  88.3360511  69.5612669  16.7103953  88.1003933
  70.1974900  17.4217867  88.1737030  69.1119673  16.7028542  88.9455589
  17.8231615  43.7392226  53.9111710  18.3370914  44.0654346  53.1724602
  18.4451062  43.2271593  54.4280924  64.9076143  16.9074283  75.1416221
  64.2734895  16.2542580  75.4374029  65.2828939  16.5331468  74.3445585
  73.3037283  68.6936112   8.6360394  72.6604674  69.3804768   8.8111476
  74.1112638  69.0135748   9.0382104  58.9385748  61.7038175  34.7360424
  58.8716897  62.0027283  35.6429110  59.8181797  61.9638954  34.4623884
   1.2218535  53.8422289  20.0701366   0.9148362  54.1013291  20.9389515
   2.0872746  54.2437568  19.9923325  28.3381380  28.9410499  14.8812172
  29.1951709  28.7314348  14.5100194  27.7728364  28.2216586  14.5998951
  27.0478297  50.8059318  32.4200954  27.5152383  50.0896594  32.8498802
  26.8054663  50.4539274  31.5635998  76.3559464  29.2982745  72.9840096
  76.2719096  30.2003486  72.6750888  77.1849275  29.2851789  73.4623928
  73.2756604  29.7184282  45.5769806  72.5195295  29.1655018  45.3800788
  72.9007183  30.5788252  45.7650427  51.5829243  65.5992926   6.0595218
  52.3022204  65.3925187   5.4627895  51.7454086  65.0533072   6.8287620
  22.6737925  12.5917788  84.1206501  23.1708848  11.9926945  83.5636680
  21.8779168  12.1082507  84.3420416  26.9345462  62.9561773   8.8767485
  27.8436669  63.0471378   9.1621561  26.9464888  62.2144537   8.2718226
  52.4449688  17.6434903  52.0510344  51.5259848  17.6007457  51.7866991
  52.9156103  17.1824041  51.3566801  18.8305912   3.5544948  63.6388049
  18.8119348   3.1398708  64.5013423  19.7045057   3.9401384  63.5772893
  18.2606891  71.3161588  49.1100005  17.8337870  70.7618200  48.4567816
  18.1336248  72.2082091  48.7869947  72.8608133  37.3559984  84.8656061
  72.8632086  37.9508133  85.6155537  72.4761617  37.8685709  84.1545897
  75.5524886  53.5040891  87.8206992  76.2691870  52.8706291  87.8568045
  75.9500149  54.2950109  87.4564915  68.9089034  61.9468464  76.0698997
  67.9693897  61.9939070  75.8928939  69.0239935  62.4363425  76.8843810
  60.8001921  31.2786005  10.2395622  60.2275276  30.7105517   9.7241907
  61.6860755  31.0070410   9.9993582  70.9820147  34.8600046  74.3817516
  70.3632969  34.7414066  75.1024142  71.8232122  34.5754042  74.7389927
  55.4905955  51.9962946  44.7738537  55.1756229  52.3810810  43.9559518
  54.9598726  52.4113252  45.4537909  67.4704154  43.6561271  78.4493004
  68.2975034  43.5299731  77.9842816  67.2580506  44.5796230  78.3140661
  76.5638166  29.1870261   6.1774278  76.4572480  28.4415144   5.5865917
  77.3408533  28.9739310   6.6941833  42.6719131  27.7665574  23.2294269
  41.8381533  28.1744933  22.9956219  42.4741169  27.2468181  24.0085158
  41.9019398  50.6909460  18.9938003  41.7607520  49.7599864  19.1658816
  42.3954080  50.7108073  18.1738451  50.1597676  13.5209797  21.6175924
  51.0410976  13.1861168  21.7829893  49.5776885  12.8466409  21.9678538
  14.0805439   0.5094309  68.9276433  13.5578947   1.3078642  69.0023015
  14.5661429   0.4631531  69.7512232  64.7261021  21.2308458  10.7412566
  64.2492985  21.2159861   9.9113956  65.3262919  21.9719966  10.6594052
  31.7332506  64.5985842  55.2153043  30.9826530  65.1719525  55.0601148
  31.5689622  64.2170786  56.0776817  25.4406248  43.6158129   2.9727037
  24.9558229  43.6201948   2.1473675  25.1343315  44.3962751   3.4345424
  83.3360760  60.7041414  84.8270783  82.8370921  61.4819330  85.0766521
  84.1627325  61.0482680  84.4887769  84.0271341   8.6809523   0.3810217
  83.3254228   8.1973959  -0.0548753  83.9896863   8.3885024   1.2916822
   7.0902275  50.1963652  46.5934680   7.4188119  50.4680814  47.4504595
   6.1911314  50.5237055  46.5668921  32.6808311  59.8400730  30.6330227
  32.2014920  60.5395630  30.1889735  33.0706823  60.2646074  31.3972337
  11.7373081  67.3685214  33.3955800  11.7242156  67.9188264  34.1786667
  11.8982617  67.9792527  32.6763213   4.1280632  54.4539170  20.2160106
   4.0717711  53.8337206  20.9429352   4.3004437  53.9084271  19.4485748
  30.2450787  46.6372659  54.7541926  30.3891237  45.8848267  54.1803301
  29.4709773  47.0692024  54.3930421  65.0311138  39.9056154  42.5504013
  65.5635494  39.3230246  42.0087998  64.1480621  39.8278035  42.1892963
  74.8381102   3.5373869  67.9259558  73.9925066   3.9194866  68.1608736
  75.3438349   4.2712491  67.5767845  53.8306169  44.0576166  41.0215222
  53.5089007  44.6806947  40.3699823  54.7755087  44.2078544  41.0505051
  27.7820412  43.3630114  39.7649312  28.2407130  44.0431447  40.2581559
  28.3909392  43.1214330  39.0669949  32.6886597  42.6091151  69.1366357
  32.4157541  42.1574428  68.3380453  32.2099045  43.4377895  69.1186368
  55.7992729  47.4117871  37.6703547  55.8101674  47.3139319  36.7182320
  55.7419594  48.3565023  37.8133940  42.3708752  41.5118393   4.6183489
  41.5596730  41.1117865   4.9316229  42.2834941  41.5156713   3.6651534
  29.1932193  56.7222734  57.1494134  29.3134820  56.5093965  58.0748604
  28.6125371  56.0366018  56.8194217  49.2463549  56.1073474  56.8361626
  49.0061045  56.9911258  56.5578689  48.4124200  55.6879608  57.0480574
  84.0086903  26.7031804  87.0700697  83.3579029  26.1340450  87.4809133
  84.3748416  27.2103435  87.7946044  25.2271591  48.3025672  15.1661241
  25.2745366  47.5926116  15.8063977  24.4688217  48.0857593  14.6237677
  67.8434768  67.2062379   3.1181138  68.1673611  67.0857523   4.0107582
  67.6984547  66.3173617   2.7939231  51.1401093  28.8889507  41.4372582
  51.7435655  28.1465954  41.4685791  51.6447628  29.5906561  41.0259600
  35.2455825  11.9608687  82.5864097  34.8655300  12.6107810  81.9953040
  35.6962824  12.4785012  83.2536113  85.0248245   3.1638516  37.3895898
  85.4299093   2.6439435  36.6954474  84.2046009   3.4759718  37.0074301
   7.2702206  12.1159296   0.1028465   6.9715286  12.6190619  -0.6546974
   7.1953338  12.7236108   0.8386096  54.3325372  41.5180714  15.7691744
  54.5785606  42.4023753  16.0406718  54.7290835  41.4140519  14.9042104
  71.9891786  40.0245339  12.0098255  71.3334354  39.6944668  11.3955874
  72.0733547  39.3320782  12.6653035   4.0788346  30.2516028   0.3051474
   4.9758352  30.0917605   0.5985282   4.1730824  30.5616649  -0.5955249
  71.8861965   7.4072843  10.9570210  71.5908062   6.5483819  10.6549234
  71.6907332   7.9974304  10.2291792  57.3909923  59.4359491  37.9629311
  57.2986973  58.4987452  37.7915768  58.3315443  59.6003162  37.8952761
  84.4781112  70.5616045  85.1895769  83.6999716  70.2850557  84.7055817
  85.0869325  69.8279987  85.1036059  17.6155647  29.8041722  82.4224257
  18.2608324  29.1935689  82.7788313  17.7072046  30.5905272  82.9604590
  70.3490340  39.3074382   6.3294120  69.4684545  39.5869090   6.5798268
  70.8449552  39.3161355   7.1480807  73.7492804  31.2917526  15.9111172
  73.6461339  30.4956553  16.4324825  73.7550010  30.9851587  15.0043651
  29.8742675  47.3307207  76.0495616  29.5746113  46.9570535  75.2208211
  30.7835417  47.0419966  76.1276049  59.0877358  66.9618880  20.3880467
  59.7461477  66.5976890  19.7963672  58.2728973  66.9329096  19.8866185
   6.0401338   6.3596952  28.0063357   5.1711576   6.0222188  28.2236417
   6.6436329   5.6839678  28.3152259   9.6145309   2.2076835  75.9474572
   8.7422547   1.8975912  76.1907856   9.6111221   2.2054978  74.9902658
  67.9159637  46.4669324  19.8939600  67.1883649  46.4159484  20.5138248
  67.5262883  46.8244469  19.0961077  71.2813415   6.0700635  49.7077250
  70.6592772   5.3926214  49.9729421  70.7894748   6.6221742  49.0998823
  76.5596548  22.9227882   2.0415901  76.4999332  23.3721955   2.8846193
  76.0544709  23.4712923   1.4414533   5.5130563  46.6044355  32.9176422
   5.0699473  46.5765079  33.7656436   6.2031821  47.2582404  33.0294339
  70.1219929  26.5299124  64.4534639  70.5261521  27.1342987  65.0760428
  70.7754486  25.8415859  64.3292296   8.8825998  32.5707686  35.2189975
   9.7729851  32.2943840  35.0020700   8.8009073  33.4418525  34.8307051
   1.1655789  59.7863757  49.8870911   0.6822495  58.9627922  49.9529306
   2.0470116  59.5718853  50.1925449  82.8999774  22.0303708  72.5165530
  82.6492153  22.4542242  73.3373443  83.6117258  22.5717339  72.1751267
  41.5911203  37.5943330  30.3214421  42.2853745  37.7884306  30.9511793
  40.7795316  37.7620469  30.8004282  55.0803840   9.2544668  25.6561869
  54.7142959   8.3829609  25.5055590  54.3387911   9.7759685  25.9632827
  62.8210856  19.7709996   3.5973802  63.1510093  19.0568967   3.0520003
  62.0087190  20.0428769   3.1703262  21.1110971  61.3006246  67.4764935
  22.0616393  61.2594038  67.5813845  20.7768857  60.6090662  68.0477041
  71.9647841  59.8980635  77.2495471  71.9694806  60.0748874  78.1902612
  71.0484725  59.7109754  77.0455792  86.3526536  53.1768492  75.1813724
  87.0837641  52.7428153  74.7416863  85.9096831  52.4753221  75.6587284
  30.5655271  49.2553460  66.4327008  31.1907153  49.3590915  67.1500630
  30.6411308  50.0663585  65.9299338  62.9615683  16.3287571  37.6821106
  62.5893306  15.8381616  38.4149046  63.6057051  15.7338518  37.2981739
  47.7720934  39.3725489   1.7832807  48.2731738  38.5631058   1.8830413
  47.0627258  39.2952845   2.4212930  52.7830286  62.3088755  40.9365458
  52.2384327  62.9025723  40.4196597  52.4832652  61.4337011  40.6906933
  30.8113889  24.7193387   2.1529835  31.6578618  25.1595433   2.0759417
  30.8633733  23.9903821   1.5347992   8.0294773  21.1826878  14.4866376
   7.2814222  21.0961888  13.8957371   8.1604779  22.1271632  14.5705245
   4.3140833  69.2862147  65.5868389   5.1519439  69.1607753  65.1413209
   4.3446671  70.1885079  65.9049010  80.8273132  14.3824924   7.0489674
  80.1969438  14.8919727   7.5581786  81.1434862  13.7150720   7.6579145
   1.3542708  32.3469573  21.7347964   1.7245366  31.4655738  21.6868572
   1.8101912  32.7586756  22.4688648  11.7010974   1.4528936  13.0711301
  12.4097984   0.9349107  13.4527955  11.1113562   1.6288133  13.8042668
  64.1627220  31.3141782  43.3695920  63.2734870  31.5853491  43.1416463
  64.2289852  30.4152472  43.0474677  77.3749760  56.5421985   5.3807279
  76.7633498  56.2518247   4.7040977  78.2396213  56.3307540   5.0287171
  74.4293872  38.9297204  39.3028241  73.9977638  38.2799778  38.7480561
  73.7174237  39.3280106  39.8035283  60.2253894  10.6393553  81.8756028
  60.2352909  11.5848233  82.0246799  59.5252593  10.5049157  81.2368729
  81.1404094  14.0970147  10.8924691  80.3092908  13.6324182  10.9905699
  80.9074815  14.9140600  10.4515457  63.0369437  56.9329401  42.3312554
  63.5827128  56.6673897  43.0714249  63.5938228  57.5220271  41.8222426
  20.3454522  23.4758679  12.1592244  20.2858064  22.9101168  11.3894193
  19.9250161  22.9746538  12.8579731  19.6175254   0.2748805   6.6070991
  19.5302624   0.8443997   5.8427269  20.1023562   0.8005643   7.2433596
  83.2460392  27.8863191  40.1673361  82.7263638  28.6198385  40.4961500
  84.0679869  28.2845160  39.8808524  59.6677277  69.0122425  70.0325461
  60.2559331  69.4046212  70.6777477  58.9391618  69.6294947  69.9660384
  48.5527225  41.7884371  27.3336236  48.3945548  40.8858397  27.0569781
  49.4764020  41.8037593  27.5842494  14.2205641  60.2176560  71.5951612
  14.2486809  60.4268110  70.6615148  13.3631703  60.5294962  71.8847530
  77.0129957   1.3058096  41.2037231  77.3647325   0.5731301  40.6980613
  76.7101614   0.9094931  42.0207032   2.5939789  40.4314777  11.6000465
   2.7629138  41.2768337  12.0160586   2.3708141  39.8479785  12.3252761
  31.7092789  59.4117811  40.6036781  32.3182970  60.0959858  40.8815135
  31.5555011  59.5903141  39.6759334  23.2680232  59.6435478  83.7400951
  23.9280202  58.9504108  83.7541306  22.4692315  59.2200714  84.0544697
  64.4758318  58.9475368  40.5163248  63.5936832  59.2113314  40.2546797
  64.6738226  59.4945140  41.2764876  85.5854100  34.2945751  28.3382810
  85.3095344  33.9258451  27.4991370  86.0986137  35.0675843  28.1030992
  53.1689068  38.9898823   5.3761368  52.3460700  39.3532468   5.7034557
  53.1338104  39.1316225   4.4301401  15.3015973   6.9791621  30.5022943
  15.3931377   7.9301646  30.4435874  15.5692963   6.6591409  29.6408098
   2.0706996  49.0977991  84.3981949   2.6520295  48.3376863  84.4209095
   2.5034901  49.7127091  83.8059029  83.7687628  64.6730581   6.6943272
  84.0143818  64.8910647   5.7952297  83.0520831  64.0453992   6.6013414
  62.2839507  70.1630704  71.5482254  62.6080273  69.7418885  70.7521022
  63.0155192  70.1081321  72.1630597  83.4701405  32.4033053  41.9786387
  84.0698781  33.0415884  41.5924506  83.5101368  32.5757024  42.9193360
  37.8305452  44.6909596   4.9332179  38.5971650  44.5729377   5.4941071
  37.3935940  43.8393615   4.9425023  25.0589872  70.2530808  78.6450774
  25.5823073  70.4496811  77.8680856  24.1626586  70.1784839  78.3175683
  58.2823289  62.2487127  31.2588013  57.7250879  61.8619676  31.9341846
  58.4591555  61.5289433  30.6530818  19.6167825  25.6746859  75.8620553
  19.8609777  25.3297436  76.7209007  18.7812320  25.2522295  75.6630132
   3.1390526  46.9365888  54.2859069   4.0870862  46.8645760  54.1750991
   2.7777238  46.6583284  53.4443343  33.6351290  37.3967711  31.2157356
  34.1945863  37.6586059  30.4845161  33.9578513  37.9066631  31.9587647
  55.8347521  20.1893617  34.9855551  55.1162335  19.6064039  35.2307551
  56.2305045  19.7728373  34.2199708   5.3620483  42.6864250  53.4195941
   5.3358743  42.2948139  54.2926276   4.6094810  43.2775890  53.3996041
  74.6725139  48.2485260  62.0740889  74.1856582  49.0341513  62.3230792
  75.5821609  48.5400002  62.0123063  34.9708100  25.5217384  75.4122325
  34.2738040  25.6449481  76.0566189  34.9790648  24.5791901  75.2455998
  32.2621741  50.2581578  56.0951460  32.9473280  50.2245209  56.7627271
  32.4933281  49.5626647  55.4794440  61.3212881  43.3347311  22.4200909
  60.3686555  43.4236456  22.4486771  61.4976135  42.9163725  21.5774063
  14.1999708  64.8386413   9.5684618  14.4262522  64.5302204   8.6910194
  14.9639155  64.6219301  10.1029303  38.4822873  23.2734152  79.6551288
  39.4153513  23.3734190  79.8438685  38.2427672  24.0793130  79.1975366
  78.3115039  43.8108797  87.2431340  79.0616763  43.2924633  87.5341968
  78.6380589  44.7102348  87.2156733  38.8322329  54.6770976   2.1973161
  38.1037421  54.4044016   2.7551422  39.4464135  55.1019268   2.7960933
  55.4403384  35.9999264  47.4830616  55.3789277  36.9316606  47.2725103
  56.3567967  35.7772973  47.3194393  60.0612861  54.0625137  35.4440471
  59.7456538  54.0897127  36.3473014  60.9492211  53.7113594  35.5110840
  76.0441028  16.5245617  61.0404723  75.1558728  16.7108628  60.7362169
  76.2557255  15.6741436  60.6554571   3.9690055  71.6249289  75.7944629
   4.2260692  71.1175244  75.0245987   3.0665040  71.3570026  75.9674899
   2.1682100  42.2579399  26.8721533   2.0202395  41.3963370  26.4823112
   2.9900410  42.1648745  27.3539878  62.8911684  50.7851361  32.7896994
  63.4021805  51.2311430  32.1142911  63.4440744  50.8197082  33.5702963
  65.8283175  51.8607828  50.3401102  65.7727423  51.7446430  51.2886115
  65.0448634  52.3620294  50.1138727  72.6124255  63.0612338  14.3308531
  72.0977865  63.0766413  13.5239199  73.1380387  63.8604067  14.2950049
  78.0257211  27.5007654  32.6319059  78.2809387  28.0110373  31.8633238
  77.1923447  27.0988347  32.3866158   3.3052723  15.2483862  30.1252116
   4.0268423  15.5192253  30.6928513   3.6458703  14.4905114  29.6499740
  85.5786946  35.3515054  23.7702725  85.4909380  35.1649910  22.8355303
  84.6801131  35.3505351  24.1000940  23.4409432  44.1442523  65.1992194
  22.5122724  44.3056785  65.0326541  23.8530914  44.2059322  64.3374995
  85.7597639  55.8087667  40.1659423  84.8397978  55.8363858  40.4288707
  86.2410641  55.7143900  40.9879368  60.9506839  54.3189515  28.8705343
  60.3849483  54.6398204  29.5728293  61.8233875  54.6369719  29.1017989
  27.0659599  61.8681726  72.2931133  26.9034370  61.4414515  71.4518480
  28.0115298  62.0161983  72.3078745  11.3144740  51.7406015  18.2158791
  10.7253909  51.0612992  17.8876088  11.8714758  51.2887481  18.8497633
  27.3666141  15.4107984  16.1737826  26.6146334  15.9893342  16.0470818
  27.0006179  14.5277685  16.1234153  51.6097013  45.6552018  43.6208943
  51.5909938  46.1965301  44.4100999  51.2608517  44.8094105  43.9022710
  77.1250923  60.9284222  57.6488063  77.9717111  61.0003890  58.0895887
  76.5454797  60.5416903  58.3050985  84.8774904  59.6171456  67.7159149
  84.6290042  59.8209086  66.8142680  84.0477659  59.5882099  68.1923094
  13.0030670  35.9925815  69.8606504  13.1898597  35.2488257  69.2877913
  13.7541394  36.5753964  69.7490757  86.2619666  33.9249615  14.6526272
  86.2349383  33.8779322  13.6969653  86.7811521  34.7071465  14.8393484
  54.1750511   6.0144888  11.2601755  54.4273415   5.8831788  10.3462067
  54.7274958   5.4060484  11.7509269  65.2842154  28.9749630  66.6262981
  64.6911241  29.2874157  67.3095608  65.4910424  28.0758761  66.8814397
  13.5212273  25.8408449  76.9563358  13.3439756  26.1700799  76.0751900
  13.1725478  24.9494153  76.9535835  60.0825889  33.6948338   0.7899142
  59.8288360  32.7725318   0.7552694  60.8610741  33.7083088   1.3467006
   7.3075296  57.8804801   3.6143557   7.7636654  58.6701275   3.3234451
   7.0129030  58.0871052   4.5013355  72.7942216   0.7665871  25.4631106
  72.9986726   0.1178526  24.7896306  72.0754984   1.2785367  25.0921977
  69.4977589  56.0141883  37.6110958  69.0760980  55.5729902  38.3485089
  68.7959656  56.5202521  37.2016847   8.0154223  50.5180908  21.1850307
   8.8380117  50.7832071  21.5964816   7.4048338  50.4150221  21.9149556
  63.1001771  66.9993927  84.5152951  63.6557855  67.1227485  85.2849148
  62.4853294  67.7324565  84.5437849  13.8811084  54.7156659  74.3668097
  13.5465887  55.0983881  75.1778906  13.7119404  53.7778506  74.4569019
  38.4767849  12.1228169   6.2177962  37.7489999  12.2824081   5.6168873
  38.9822984  12.9355077   6.2029084  38.0387745  59.9037310  88.5951787
  38.4720914  60.1271844  89.4189122  37.6812911  60.7337565  88.2797501
  85.6419714  51.7266005  12.0066413  86.2559300  52.4076530  12.2813304
  85.8375558  51.5873850  11.0800359   7.3520916  12.3678301  84.1326368
   6.9494932  12.8114800  83.3860974   8.2439914  12.1745347  83.8438748
  70.9425191  17.1208509  70.8488284  70.3143804  16.6964671  71.4332699
  70.7366331  18.0534764  70.9124883  20.1741004  62.4473084  72.3717668
  19.4480440  63.0710639  72.3700333  19.9325161  61.8003956  73.0346188
  51.3150854  51.9536980  42.6839930  51.0705257  51.1068730  43.0572354
  52.1177830  51.7764636  42.1935887  70.5087400  45.1987224  59.5107385
  70.9653555  45.7896848  60.1094852  70.7707605  45.4923702  58.6381859
  28.5014417  10.7650342  76.0692347  28.7156117  10.3734883  75.2224437
  28.9076449  11.6313463  76.0421397  36.3283567  48.3657866  39.0451058
  36.1840091  47.9301941  38.2050733  36.1109039  49.2831655  38.8796908
  81.6579085  27.1216524  60.5737143  80.7364938  26.8909487  60.6920469
  82.0027563  27.1945680  61.4636554  58.2485698  23.8894151  13.6451519
  57.8797356  23.2224602  13.0660454  59.1949946  23.7568579  13.5909243
  53.7609675   2.4214157   9.6772739  53.8709217   1.4930629   9.4715969
  54.0785496   2.8785143   8.8985350  15.1094935  56.8665561   7.4281538
  15.3427281  55.9411432   7.3543679  15.5545461  57.2852109   6.6913443
  36.4892150  57.5425312   1.4755187  36.0603106  57.1505534   2.2361936
  35.7680322  57.8283310   0.9147641  22.2569316  46.6665368  65.4361955
  21.7326655  46.0100674  65.8949162  22.1458929  47.4650391  65.9522346
  63.0808764  49.9731317  81.1839366  63.1158563  50.1921088  80.2527775
  62.5491844  49.1781523  81.2232207  42.6158652  37.3206466   5.4559434
  42.8436358  36.8373668   4.6617187  42.1626760  38.1020022   5.1391868
  77.6336765  11.7466068  82.6488252  77.3734484  10.8377512  82.4988426
  77.7360041  11.8128858  83.5982292  50.6496070  65.7170310  87.3146210
  50.0310458  65.0840800  87.6792946  51.5020329  65.2875574  87.3864147
  -0.0419753  41.5043044  35.1971146   0.6071615  41.7269210  34.5298102
   0.3050525  40.7163682  35.6153968  62.4142736  52.8729566  35.4310133
  63.0597715  53.5388956  35.6678457  62.7812611  52.0542959  35.7646999
  64.5384753  19.8204403  74.7761715  64.7344093  19.6690055  75.7007846
  65.2142259  19.3328510  74.3051624  56.7086672  44.6942770  81.5678245
  56.6435592  43.8041404  81.9137287  55.8082597  45.0190626  81.5713490
  41.6408550  44.9271738  68.5257026  42.0166184  45.6216598  67.9846639
  41.0157794  44.4867148  67.9499351   2.6773734  11.1502219  44.7091766
   3.3989429  11.0044975  45.3210048   2.6590903  10.3608870  44.1680223
  17.8515143  37.5373589  81.6334704  17.0861334  37.0882885  81.2746394
  18.3199846  37.8634314  80.8650667  64.2466816  46.2805597  88.5062659
  63.2911741  46.2625199  88.5602279  64.4307926  46.5221853  87.5985478
  54.1937780  65.0834066  41.0611273  53.5073905  65.1745866  40.4002262
  54.2079886  64.1481088  41.2642230  81.1227446  68.1182410  57.4198007
  81.4609047  68.0421845  58.3120422  81.6327276  67.4843160  56.9155307
   0.7648643  28.8657521  13.1546632   0.6227243  29.8115133  13.1151167
   1.4108715  28.7495656  13.8513749  60.7187177  13.2904347  32.0290723
  61.1132396  12.6560520  32.6275227  60.7203218  14.1136197  32.5175351
  81.8426670  14.3992671  53.3077130  82.3029877  14.0888630  52.5279784
  81.4721669  15.2425631  53.0473029   7.2701240  39.3291084  60.7931968
   7.3918551  38.3951654  60.6224223   7.4495569  39.4269815  61.7283206
  43.3936612  34.3058137  77.2641123  43.2692334  33.5289322  76.7189474
  44.3435158  34.3914685  77.3457915  18.8917388  52.7784055  44.8564586
  18.0929358  53.2779544  44.6873537  19.2923562  52.6681704  43.9941444
  64.6417286  23.1350779  36.7332423  64.4351547  23.4038316  37.6284130
  64.4651534  22.1944163  36.7187979  37.4942842  51.4425227  60.1846574
  36.8033366  51.7013095  59.5748601  37.3172850  50.5202223  60.3697659
  69.3850725  58.7683424  76.0967616  69.1376998  58.4229435  75.2390098
  69.4299664  59.7159821  75.9695003  15.0013059  17.0218313  15.8703141
  14.4069924  16.2723528  15.8341851  14.6805710  17.6148140  15.1908052
  13.2203476  29.8647814  85.9890250  13.4576324  29.3712505  86.7741078
  14.0409040  29.9522431  85.5039792  77.2425277  65.4967663  36.5891437
  76.9663216  65.2883491  35.6966728  77.7462582  64.7323286  36.8686477
  50.8031620  51.6998720  59.3889430  50.2106598  51.2580996  59.9972276
  50.4641390  51.4790615  58.5214535  49.4279668  59.4021424  15.4901466
  50.2658717  58.9464007  15.5704377  49.2299579  59.3762167  14.5540098
  25.0545685  15.9275649  74.0537008  25.9125829  15.7182802  74.4228119
  25.2222192  16.6561729  73.4559923  55.7817577  39.9922009  28.8895645
  56.2015948  40.8479091  28.9774978  56.1359102  39.6341726  28.0755476
  23.7272038   0.2827596  75.6596107  23.1382341   1.0261463  75.7889268
  23.1447415  -0.4574891  75.4893126  64.3162744  27.4981313  33.2747036
  64.6044876  27.5227645  34.1871499  63.6708816  28.2019005  33.2083041
  18.8811166  48.2953496  49.7651934  19.6244330  47.7339745  49.9855810
  18.8444567  48.2797424  48.8088231  77.7640568   6.9018830  48.2408720
  76.9335759   6.7586312  48.6947576  77.5124211   7.2472215  47.3843368
  46.0780686  40.9686728  21.8036381  46.5916223  41.0195708  20.9974720
  45.8268984  40.0473906  21.8698525  35.2587191  54.0625713  42.6268059
  35.0566218  54.4965130  43.4557107  35.9950205  53.4862024  42.8314789
  52.0661175  12.9877004   4.2007474  51.8458908  13.1770630   3.2886762
  52.7196829  12.2902356   4.1494952  10.2901584  27.5150083   3.6648262
  10.7269159  28.3602753   3.5599529   9.8822916  27.5618113   4.5295146
   2.7264795  24.0796923  74.1521504   3.5452464  23.7716366  74.5406789
   2.0760539  23.4293167  74.4170844  75.2942332  43.0001564  64.3634888
  74.3892984  43.2752785  64.5105690  75.4871321  42.4113067  65.0930626
  47.7598378  46.1833948  50.8552368  47.4286059  46.4728273  50.0050920
  47.6061778  45.2386419  50.8631360  20.6361592  18.4182520  64.9889842
  20.4092757  19.2256572  65.4503435  21.5120234  18.1988625  65.3067295
  70.3956773  59.2294715  71.7174890  69.8358961  58.4766338  71.9075210
  69.9010999  59.7399081  71.0763343   0.2518918  57.0899049  85.6838799
  -0.5255240  57.3431937  85.1861840   0.2877041  57.7158672  86.4071506
  12.1183330  34.7186197  21.2933608  12.6962961  35.3399747  21.7362023
  11.8280169  35.1803228  20.5067359   2.0842423  32.0472297  82.6227028
   1.6281054  31.2773328  82.9624523   2.4232207  32.4880022  83.4018338
   8.9627142  38.1308649  46.5602084   9.7794474  37.8331345  46.9608768
   8.7019090  37.4115118  45.9851052  77.5577887  47.5904010  51.3287060
  77.3746768  47.7728050  52.2503516  77.6765096  46.6413259  51.2913745
  51.3145665   9.6327235  70.0072683  50.7861323  10.0559412  69.3306031
  50.6749545   9.2181512  70.5862832  56.7057491  62.5463704  52.7914797
  55.8435759  62.4333429  52.3913371  57.2410243  61.8520761  52.4072042
  57.0715897  33.2873048  65.6317906  56.1232385  33.3647525  65.7360202
  57.3478942  34.1449984  65.3089138  18.8207714  57.9456642  60.1084327
  19.1520562  57.2984858  60.7310419  18.1386460  57.4827451  59.6219734
  83.6783851  40.3964041  15.3736796  83.3669019  41.1692039  15.8448383
  82.9209636  39.8118246  15.3451928  54.7380475  25.1211840  88.0250946
  54.2056682  25.3260134  88.7937617  54.3612993  25.6531336  87.3241507
  63.2101941  65.9175397  26.0654129  62.9329512  65.0429531  26.3382983
  63.7341417  66.2420979  26.7977876  17.9846357   2.5963560  79.6464798
  17.2364277   3.0910123  79.9807429  18.5492916   3.2575041  79.2461315
  22.8178838  63.8145415   8.2727767  23.5364339  64.3943184   8.0202370
  22.1056498  64.4068447   8.5138815  73.4635295  50.7535780  79.7556318
  73.0990089  51.5125875  79.3003724  74.4101360  50.8941867  79.7357012
  62.5024707  45.2300483  30.2765528  62.8343441  46.0739425  29.9700654
  63.0325325  45.0301406  31.0481117  24.2526602  66.5361592  18.6629282
  25.0686439  66.8046274  18.2406402  23.7026886  67.3192824  18.6409917
  70.7059124  67.0224619  51.1324806  71.5766248  66.7042017  51.3708126
  70.1259958  66.6562709  51.8001877  57.4888015  16.3030252   2.2573134
  57.3927882  15.3607350   2.1191020  58.1540778  16.3781988   2.9414100
  52.5715328   4.3467145  52.9386624  52.8690858   5.2406193  53.1078614
  51.9495160   4.4340095  52.2163699  63.4403574  69.4406641  36.3897130
  63.3321640  69.8753823  35.5438134  64.2542666  69.8009664  36.7418009
  77.6143101  47.6125422  59.7270331  78.0750178  47.4875387  60.5567044
  77.3802326  48.5406570  59.7205224  55.8931602  10.5049511  35.7730935
  55.3988613  10.1035647  35.0583982  55.2442914  10.6485692  36.4619876
  49.0929400  40.0630904  25.1834599  48.9122100  39.2794132  24.6644045
  48.3582142  40.6479110  24.9980019  32.3581547  46.3719124  76.1243199
  33.1246202  46.1487435  76.6524847  32.3742386  45.7443404  75.4017367
  75.9361416  57.8225588  73.9479254  75.4212282  58.6033565  73.7443306
  75.2854169  57.1305350  74.0657910  63.5105688  30.6111005  81.0966418
  62.6329236  30.5597227  80.7180508  63.9731267  29.8564183  80.7323249
   8.9671118  66.2837562  73.9810320   8.6666741  66.7821281  74.7410283
   9.8977787  66.4954691  73.9084461  52.9861061  36.2776995  16.2013132
  53.8393029  36.6927697  16.3278195  52.3831261  37.0076771  16.0606731
  77.1442634  59.4938934  25.2265846  76.9927420  59.8389033  26.1064944
  76.6416254  58.6797625  25.1986978  44.1235426  26.1901687  70.1662775
  43.1802739  26.0863532  70.0409845  44.3467236  25.5524166  70.8442851
  51.9861129  69.3799929  66.3329314  52.2797728  68.7296409  65.6949361
  51.1582962  69.0327773  66.6651852  39.0487371  31.6892580  14.4261567
  38.6269286  32.3364183  13.8609196  39.3356885  32.1893671  15.1902127
  37.4503987  28.0219320  79.6891877  37.8142626  28.9055341  79.7447042
  36.8907311  27.9443940  80.4618402  52.3353578  37.6647344  23.9118559
  52.2122698  38.1791712  23.1140865  53.2729165  37.4727514  23.9307777
  70.7759226  67.4969592  33.6647814  70.6908107  66.9907058  34.4726770
  71.7141779  67.6704540  33.5885691  22.5767517  16.0888405   1.9632116
  23.4106943  15.9493115   2.4118798  22.1305356  16.7532687   2.4882432
  79.9042171  20.1759322  42.0762840  78.9508853  20.1135333  42.1354166
  80.2033868  20.1403144  42.9848327  79.4228496  50.8681350  23.8416963
  80.0522569  50.1922992  23.5900533  78.8830385  50.9951343  23.0614995
  55.7015367  56.4927699   8.5395119  55.1606698  57.2556556   8.7437184
  55.0750993  55.8185711   8.2763312  76.8267970  61.6385218  30.7319173
  77.0671724  61.0526594  30.0141313  76.1893183  62.2399136  30.3469747
  48.2719367  49.6195620  29.6596022  48.6272029  50.2896508  29.0756512
  48.3442572  48.8052269  29.1617468  55.3710114  64.3271926  86.4295195
  56.1291905  64.0333497  85.9244922  55.7404105  64.6436450  87.2539187
   6.2159272  65.2976725  76.8736189   6.1268374  64.4708309  76.3996697
   5.3155100  65.5822840  77.0300702  33.1993239  52.1773181  58.2726451
  33.3564950  51.2498983  58.4499060  34.0431333  52.5088213  57.9655242
   5.9052397  12.5801669  74.3346539   5.7417288  13.2132416  75.0337336
   6.8245438  12.3363074  74.4425627   5.2836105  64.7459437  36.4467572
   5.0350140  65.5537886  35.9975155   4.5253715  64.5308873  36.9899480
  78.1994440  13.0982652  50.5600462  77.2665748  12.9342289  50.4219197
  78.5594749  13.1911196  49.6780100   6.3651432  32.3337200  54.7130358
   7.3194346  32.2982892  54.7786440   6.1648744  31.8871182  53.8904357
  18.1347258  66.9926049   3.7579845  18.8812592  66.9220882   3.1630499
  18.4759644  67.4685685   4.5151151   3.9289150  64.8712759  48.7864329
   3.2019351  64.9511200  49.4039739   4.6965390  64.7212881  49.3382380
  75.0159248  54.6843711  47.6970890  75.3239047  54.5108015  46.8075645
  74.1051900  54.3897632  47.6969851  38.6526598  67.8746020  73.7077221
  39.0203184  67.2523156  73.0801724  39.3854033  68.4472050  73.9345362
  53.7252508  26.7790276  86.1194982  53.9942734  27.0059097  85.2293391
  52.9535250  26.2249474  86.0025956  58.0751632  28.4852815  54.1229487
  57.1524184  28.7120436  54.0073944  58.5070958  29.3212811  54.2983650
  73.6584328   9.9732766  63.4294083  73.6382935  10.5108485  64.2211423
  72.8452576   9.4693327  63.4613239  71.5327082  61.3195787  60.6599709
  71.1723548  61.0638760  59.8108575  71.0250334  62.0905144  60.9132617
  23.8395843   0.0045404  48.4062109  23.2731107  -0.6561317  48.8047733
  23.8978868   0.6980278  49.0634079  11.4824192  10.0197036  88.0535685
  10.6558664  10.4619842  87.8600998  12.1394317  10.7150613  88.0212549
  24.0078307  51.5777355  77.7874167  24.6952729  52.2045417  77.5620969
  24.4725389  50.8522189  78.2044345  85.8713419  65.0790935  42.6516013
  86.1302476  65.8465289  42.1414614  85.0093841  64.8431871  42.3086599
  34.6992008  56.8310199  30.5115303  35.2560630  57.3921022  29.9717869
  34.7257861  57.2318253  31.3803687  40.7332681  55.8327445  27.6233949
  40.6025951  54.8868709  27.5564648  41.5126352  55.9287227  28.1707585
  69.3439648  61.8998685  27.1839444  69.0241766  62.7866920  27.3498099
  68.8278308  61.5947898  26.4377778   5.8115690  60.3322318  13.4732573
   6.7190267  60.2927524  13.7752403   5.6581614  61.2603587  13.2964006
  83.7392013  11.1104632  18.1399355  83.6779225  11.0759318  19.0945476
  83.4123595  11.9803225  17.9102594  53.4934450  57.4196800  34.3445115
  54.2237122  57.6276118  33.7616685  52.8408272  58.0955100  34.1612750
  25.0487992  21.7432586  12.7415451  24.3980648  22.4088849  12.5185692
  24.8587652  21.0149543  12.1501977  53.4356296  25.3082294  28.6851412
  54.0137085  25.6806848  29.3509742  53.1332964  24.4831991  29.0648143
  12.4434022   0.0264005  74.3568873  12.0430065  -0.6393775  74.9160427
  12.4194839   0.8262622  74.8821310  25.1428908  36.0143380  74.5497182
  24.7559258  36.0297909  75.4250759  24.8287564  36.8176835  74.1347636
  40.0238891  71.5414367  13.9147400  40.7490270  71.8221598  13.3565272
  39.7901350  70.6736204  13.5853683  47.1268089  19.6812534  14.2507261
  46.3713499  19.1846164  14.5651545  46.8104379  20.5822320  14.1845533
  67.3079642   9.4267714  25.9988640  68.0895266   9.7029654  25.5202109
  67.6185551   8.7396982  26.5885213  47.8208080  14.4201911  18.9248677
  47.9841040  14.9800524  19.6838944  47.3142261  13.6864389  19.2730263
  84.3130918  44.9459324  83.1256580  85.1041762  44.8805203  82.5907388
  84.5479719  45.5531222  83.8273585  44.3083956  48.5157431  59.4441076
  44.6565229  49.4035977  59.3619277  43.6742648  48.4401695  58.7310868
  43.1736154  63.7741647  53.0153276  42.2540884  63.8669657  53.2645061
  43.6529253  64.2693883  53.6795922  14.3765892  32.0780805  76.7446221
  14.2883598  32.3185589  77.6669114  13.9644699  31.2164675  76.6812772
  85.6850733  41.2236464  58.7527165  86.3656899  40.9293654  59.3580193
  84.9227298  41.3837298  59.3089877  26.8723329  71.7575475   6.6859426
  27.8106951  71.6109871   6.8052245  26.4553941  71.1478446   7.2947580
   1.1984615  13.5835302  72.4254327   1.5595477  13.6721647  73.3074716
   1.7827487  12.9638467  71.9885887  53.3203531  39.4002166  36.9728422
  53.1565390  40.1439409  37.5527309  53.7027689  38.7323802  37.5420386
  31.4150216  60.0600271   5.4184768  31.8357283  59.6759274   6.1877006
  32.0837347  60.6305460   5.0395799  39.5070847  22.0597506  19.5972832
  39.7419051  21.7890680  18.7096898  39.7994859  22.9693323  19.6555469
  34.4449036   6.4207324   4.0194871  34.0423454   7.2566792   4.2547993
  35.0533399   6.6382671   3.3132890  51.7611439  20.7609024  18.8548228
  51.1629619  21.2376093  18.2793572  51.1875386  20.2549223  19.4303164
  40.5261553  64.0625363  84.6203565  39.9967592  64.4298653  83.9125140
  39.9532178  63.4204662  85.0395466   4.3240823  42.8962490  86.8818169
   4.0020883  43.5144080  86.2257445   3.5695241  42.3411134  87.0785357
  70.1559411  11.9608559   4.0684984  70.2053697  12.3050228   3.1766812
  71.0525590  12.0204823   4.3982753  81.2998934  15.5453790  64.5373063
  82.1760650  15.9088336  64.6655867  81.2657099  14.7898991  65.1240886
  19.7501055  16.7540485  73.2028770  18.7932101  16.7677595  73.2227520
  20.0122493  17.0804286  74.0636839  29.7689112  67.6045306  48.8195432
  29.3398262  68.0268731  48.0754029  29.3072246  67.9437351  49.5863662
  68.0997711   4.2923713  53.5416403  68.5185901   4.0583520  52.7133545
  68.7324927   4.8636900  53.9769451  70.0255442  34.2760333  49.6905243
  70.0182081  33.7189534  50.4688815  69.5074411  33.7939143  49.0460383
  21.3667375  66.5712471  29.6048721  21.9552429  67.3221273  29.5269476
  21.8537689  65.8439996  29.2173889  36.5843176  27.3440570  82.2023383
  36.8302253  28.0227646  82.8309218  35.6474767  27.2115120  82.3472277
  81.0549082  38.0549878  53.8652204  81.7816780  38.3680760  53.3266917
  80.3077481  38.0289475  53.2674701  63.3503248  40.1287888  17.8458113
  62.6191022  39.5606156  18.0881430  62.9575508  40.9962414  17.7484135
  43.5337223  69.8754335  81.2070609  44.0904649  69.3701119  80.6146764
  43.2243258  70.6098400  80.6768224  10.9847761  70.3866198  39.4536754
  11.0383083  69.5049745  39.8225488  11.8659757  70.5620698  39.1236202
  31.5373462  44.6855836  53.0573988  32.4337265  44.4973958  52.7793349
  31.0845085  43.8448877  52.9910637   6.1176183  46.5542253   6.7681897
   6.4579129  47.3116012   6.2919406   6.1951834  45.8277766   6.1497339
  37.8003705  42.8770746  69.9102378  38.2232114  43.5706324  70.4166121
  38.2534179  42.0766734  70.1754503  19.3160544  40.6458569  33.2859708
  18.6219703  41.2038369  33.6368800  19.0903550  39.7654243  33.5861874
  48.6608376  30.6527092  14.9184967  48.1474689  30.5973431  15.7244863
  48.8201741  29.7413677  14.6729356  53.2157789   4.8905584  39.7728792
  53.7564125   5.6804583  39.7751730  52.4897702   5.0989301  39.1848958
  43.7142769  57.2394020  62.5009712  42.9621004  56.8083011  62.0952443
  44.1985600  57.6171813  61.7668155  71.5486958  54.4177239  61.8905253
  70.7315508  54.8497312  62.1392732  71.4090515  53.4965427  62.1099713
  58.0623287  58.3286733  34.5137282  57.6957734  59.2000349  34.6640544
  57.8803881  57.8495588  35.3221704  10.3202095  50.3019684  22.9506252
  11.2750582  50.2742281  23.0116694  10.0371369  49.4302339  23.2266337
  28.6190742  64.3752164  80.5088813  29.3691742  63.7809109  80.5284474
  28.1225649  64.1088363  79.7350906  73.2142253   3.4948563  81.3566630
  73.2207921   4.3997764  81.0447202  72.3767895   3.4043219  81.8113459
   9.6818224  51.4240057  11.6294931  10.1680521  52.0046408  11.0441083
  10.3027152  50.7288245  11.8473166   2.9314985   9.8524876   5.1335027
   3.7684523   9.3982392   5.0365566   2.6984334  10.1176524   4.2437836
  46.1140006  58.2715198   5.7160342  46.2923973  58.6428347   6.5800549
  46.7858892  58.6503034   5.1491828  49.3245405   8.2576511  22.7164492
  50.1401929   8.0248424  23.1600066  48.6377323   7.8709510  23.2595784
  84.5210277  35.1396746  55.3452312  85.0510665  34.3428824  55.3249083
  85.1451050  35.8374581  55.5448745  23.5812391  69.2124279  36.7642191
  23.7341273  70.1385070  36.5765106  24.1347060  69.0272765  37.5229188
  82.5303310  46.0686237  31.8892104  81.8941299  46.7302419  32.1607639
  82.8710632  46.3920500  31.0552267  80.5948527  24.7642493  64.3486501
  79.9496437  25.1941811  64.9099842  80.8380886  23.9715808  64.8269228
  13.7336962  54.2496764  87.4055997  13.4831371  53.4278699  87.8276021
  14.5559702  54.4955827  87.8294243  84.0070299  18.6219530  78.9255272
  83.1463552  18.6585740  78.5082386  83.9864524  19.3213155  79.5787503
  85.6091376  37.7085802   8.7169938  86.4143124  37.2060243   8.5930469
  85.8928265  38.5114575   9.1541900  47.1441639  69.9005419  73.8353196
  47.5883586  69.7686985  74.6728996  47.1222641  69.0307505  73.4363020
  17.8918056  35.1806127  60.7863107  17.7776746  35.1899642  61.7366362
  17.0536011  34.8662106  60.4474945  55.3402040  51.7550344  74.6781449
  55.5245352  51.0010730  74.1179699  54.9945235  51.3746489  75.4856371
  44.5947594  55.2700455  25.9933767  44.7071086  55.0846540  26.9257069
  44.8032602  56.2002900  25.9073277  71.9149940  38.3433376  82.4623184
  71.4283333  38.0711471  81.6843046  71.8915596  39.2999155  82.4369896
  18.9999170  42.7279802  83.4685394  18.7355313  43.6018115  83.1808747
  19.1015768  42.2294644  82.6577503  76.0119429  37.7575293  71.3319319
  75.5905048  38.2091631  70.6007352  75.4239144  37.0300761  71.5350726
  65.2356015  31.0381151   5.9897701  65.0817772  31.1957231   5.0582500
  65.8320731  30.2897754   6.0107729  56.4886564  36.2216262  68.6372566
  56.9499862  37.0518827  68.7559197  57.1311315  35.6482398  68.2193026
  14.3866530  68.8898367  71.8285818  14.5136649  69.8345960  71.9153551
  14.2898115  68.5775617  72.7282139  12.1604549   9.7720295  78.7498102
  13.0893276   9.7553065  78.5192726  12.0808627   9.1454397  79.4690335
  36.9847738  57.1445484  12.2520412  36.4860759  57.0438646  13.0628402
  36.3929577  56.8341678  11.5667316  53.2549040  14.0976235  74.1957369
  54.1750670  14.0591907  74.4566101  52.9360269  13.2023335  74.3097761
  45.3563875  40.2876492  86.8834377  44.8520625  41.0470989  86.5916771
  44.7880717  39.5389320  86.7026851   3.0543085  43.8872171  75.5384668
   2.2129838  43.6405086  75.1543580   3.4435362  43.0577786  75.8155323
  21.7691520  53.3324988  15.9899938  21.6025522  54.0182522  15.3432955
  22.2606653  52.6655245  15.5106276   1.0151121  57.9641372  76.5079217
   1.4321119  57.7461321  75.6743651   0.0795440  57.9923444  76.3075510
   3.3074910  46.7134840  75.7651246   3.1859640  45.8748505  75.3199764
   2.5844337  47.2574227  75.4527936  65.7564181  39.0316524  66.3937287
  66.6876362  38.8899280  66.5639603  65.6322711  38.7462992  65.4885255
   2.8421398  17.3865866  82.2133070   3.0482280  17.0512157  83.0858239
   3.6948563  17.5072695  81.7955248  36.3511542  53.1455384  35.0757074
  35.8473036  53.3012490  34.2768829  35.7795189  53.4466669  35.7819556
  14.6034637  42.3576960  13.0049699  13.8263044  42.8904543  12.8363764
  14.5207780  42.0970364  13.9222766  42.1878634  43.5380874  29.6926932
  42.2071988  43.5235041  28.7357996  41.3882484  44.0178165  29.9088130
  15.6084413  36.2728244  68.8244914  15.9932422  36.8944724  69.4423214
  15.8381793  36.6188971  67.9621192  62.7569951  57.2408716  85.3432647
  62.0596314  57.3206968  84.6924625  63.4593060  56.7781548  84.8862258
  70.0124669  14.3719520  12.1438302  69.6903788  13.4964423  11.9294150
  70.4559387  14.2645905  12.9852802  34.7126279  36.4187526  68.2955327
  35.5299031  36.5787640  67.8236328  34.3152283  35.6758570  67.8412075
  68.0901706  44.9976038  69.6198082  68.5803871  45.4764806  68.9515294
  68.6682830  44.2771245  69.8706617  40.6555839  67.7468871  80.3029599
  41.1578070  67.8248354  81.1140874  40.0080027  68.4499480  80.3537129
  32.0867588  41.7661155  11.8215640  32.4173363  41.8456769  10.9267901
  32.8436544  41.4780321  12.3318079  65.6464042  49.9315532  11.6220705
  65.4590443  50.8284654  11.8989759  65.8480211  49.4672439  12.4344739
  58.0415737  68.2760054  88.3851547  58.7937637  68.2833199  88.9770909
  58.3943407  68.5717700  87.5459226  46.8513220  64.3236857  59.3924826
  46.2447913  63.9748983  58.7392600  47.6393237  63.7886582  59.2974527
  23.4496165  71.1685728  71.6174053  23.3917077  71.6331148  70.7824926
  23.9217624  70.3620376  71.4104972  22.4228578  21.6650773  24.0331805
  22.2648238  21.5383032  23.0976670  23.0360212  22.3988994  24.0752220
  40.2614082  40.9568544  17.7583027  39.6400424  40.2291924  17.7836889
  40.4217005  41.1671371  18.6782589  76.8531396  10.3643024  24.4662912
  76.2037048  10.6928840  23.8445995  76.4262545  10.4378500  25.3198671
  76.4571560   3.1202849  75.1669069  77.0497818   2.6188572  75.7269041
  75.7571625   2.5053307  74.9476531  82.3960930  60.6579316  48.7225994
  82.7484164  61.3443095  48.1560437  81.5362019  60.4593550  48.3519426
  11.6148442   9.0183498  26.8937901  11.6029498   9.1169707  25.9417585
  10.9846532   9.6659457  27.2095600  85.5374701  34.0295518  77.4693857
  85.6248601  34.7975205  78.0340261  86.3081737  33.4976043  77.6675767
   3.2682586  10.6802796  10.0765488   3.9483773  10.9567058  10.6907628
   2.8571690   9.9256193  10.4981232  64.4946521  13.4925587  70.2387795
  64.8636941  14.2811800  69.8411410  63.6791093  13.3424203  69.7606787
  80.0456402  29.3179654  55.8999664  80.7021004  28.7227162  55.5380682
  80.5266945  30.1265353  56.0761292  79.7269638  23.8104015  51.5682245
  80.1341434  24.6766593  51.5740507  79.2874921  23.7466133  52.4161794
  51.3733852   7.8381290  76.2295615  50.8826472   7.0183310  76.2873484
  52.0509605   7.6660920  75.5757063   0.2951183  55.0640069  77.4190964
  -0.3424956  54.5860421  76.8887851   0.3357391  55.9328531  77.0194865
   4.7835981  40.3642168  30.2591776   4.8911229  39.6270782  29.6580978
   4.7689077  41.1353487  29.6922812  38.3025408  41.3423876  58.4549171
  38.2031135  42.0522717  59.0892754  37.8918708  40.5866127  58.8749008
  30.7929361   0.0000384   4.5661799  30.1045842   0.6578176   4.4675392
  31.5713080   0.4093806   4.1882804  14.0802487  59.5436133  81.8257250
  14.6981051  60.2215192  81.5519934  14.3150295  59.3586198  82.7350584
   8.6812159  47.7736165  73.9567323   7.8626926  47.7583099  73.4607311
   9.3524026  47.9763003  73.3050732  62.0323336  31.0412917  37.5836669
  62.4953146  30.5967156  38.2937603  62.7159714  31.2543542  36.9484696
  76.3020339  33.1333044  14.7362742  76.7637136  32.2961981  14.6879351
  76.1467862  33.2675669  15.6712093  57.8174020  65.2335232  68.9285779
  56.9234268  65.0025367  68.6762181  57.7978925  66.1845085  69.0357138
  57.1254777  14.5439980  37.0368552  57.9416806  14.3984201  37.5152397
  57.2350327  15.4047097  36.6326214  25.2357566  69.3008334  51.7651562
  25.7971218  70.0026032  51.4355808  25.0690076  68.7487504  51.0011988
  33.6645943  67.3268399   8.8283755  34.3009409  67.5584017   9.5048915
  32.8133740  67.4945365   9.2327685   3.1513496  29.9015476  28.9384448
   2.6662276  29.1048041  28.7237629   4.0676472  29.6737647  28.7811377
  74.4586487  20.3633550  43.7192047  73.7344706  20.9271014  43.4471976
  74.5379850  20.5131447  44.6612772  66.2250121   1.3200758  36.2931298
  66.4972935   0.8685407  35.4942489  66.1355475   2.2365091  36.0316381
  16.1032839  29.7174566  85.3137918  15.8289873  29.2689917  84.5138715
  16.3535819  30.5943746  85.0229350  36.0536778  20.0921886   7.9120945
  35.4462775  19.9814160   7.1806396  35.8203744  20.9397144   8.2909101
  45.0102966   8.0427741  12.8686893  45.7968497   8.5831513  12.7941339
  44.3488870   8.5109423  12.3591918  61.1836533   8.7098718  83.5038417
  62.0766629   9.0271375  83.3692752  60.6346815   9.3275932  83.0208488
  42.8970136  47.6919231   2.1592427  43.0346249  46.7532351   2.0321215
  42.2082907  47.9197623   1.5347573  68.8960412  59.8062473  38.7940612
  69.0414006  59.2181799  39.5351949  68.4609490  59.2617245  38.1379960
  76.7616310  52.8973591  63.7087454  76.6489523  53.1614552  62.7956251
  77.5398883  53.3718350  64.0010123  32.2862937  39.6212164  26.5461634
  32.5283032  38.8947283  25.9718130  31.6637203  40.1356225  26.0323342
  58.4914268  43.8199435  40.0710918  58.6494524  44.2042583  39.2087914
  59.2121674  44.1418515  40.6125158  74.8372217  16.8290935  68.5607435
  74.7837348  17.1425205  67.6578955  75.7379380  17.0151773  68.8259130
  63.4397880  14.2699296  48.2240890  63.2223633  13.4039053  48.5689950
  63.7790401  14.7502746  48.9793429  56.9975475  39.2399993   5.5298837
  57.8732744  39.5419248   5.7710792  57.0862355  38.2906367   5.4457596
  47.3066406  41.6258690  57.9808805  47.0474419  40.9282104  57.3789499
  46.5262112  41.7868832  58.5111974  71.6405225  46.9448930  44.8088438
  72.2962692  47.0065615  45.5034120  71.2334065  46.0884447  44.9391697
  71.1852015  34.9168082  37.7379011  70.3929051  34.7214198  38.2382227
  71.4731194  34.0672557  37.4038418  73.7801702  21.5290697  16.9853720
  73.9275223  20.8924133  17.6847916  73.7410976  22.3734811  17.4344539
  45.5089342   9.7230697  41.7087864  46.0735936   9.9933024  42.4329176
  45.8890328   8.8994525  41.4031532  69.8734795  49.5362477  18.7349577
  70.3412902  48.7650505  18.4145830  70.4202744  49.8696881  19.4463399
  74.9173564  21.4926068  60.9728894  75.3362233  22.3317555  61.1642313
  74.4780825  21.2526281  61.7887819  83.5116771  70.7720814  81.1305122
  84.2182196  71.4177110  81.1166595  82.7332836  71.2631746  80.8675240
  83.8228488  56.2837393   1.8666701  83.4910691  56.2047779   0.9722881
  84.3873487  55.5192270   1.9810932  42.5457536  61.9641238  57.1701201
  42.6989345  61.0425274  56.9617275  41.5926607  62.0520480  57.1808422
  83.2101761   7.0572210  11.7385087  83.2007397   7.6023692  12.5252464
  83.3813368   6.1727571  12.0620198   4.9314011  10.6560427  54.8703279
   4.8595270  10.9711613  55.7713085   5.8637392  10.7268566  54.6654794
  22.8803402  17.5318141  66.3830685  23.8369841  17.5386500  66.4149679
  22.6137484  18.1570798  67.0570147  59.0771574  23.8182824   0.1951476
  59.6787643  23.9287263   0.9314242  58.2407696  24.1548845   0.5166849
  84.1958570  12.7753301   1.7946284  84.4342119  13.1625469   0.9523209
  83.7005993  13.4614385   2.2420733  22.7048852   4.9451310  12.5116648
  22.9621646   5.8596529  12.3946652  21.8804084   4.8650266  12.0320262
  77.2381062   1.9833698  60.4988243  77.2153704   2.5116923  61.2966904
  77.7262801   1.1978458  60.7455429  41.9356587  50.8235208   9.7981012
  42.8193008  50.5252262  10.0135746  41.3768256  50.4135467  10.4582972
  35.6101178  23.9074641   6.6563799  34.7652416  23.6418598   6.2932404
  36.2557199  23.5524557   6.0453162  68.5762881  18.0346647   5.0779376
  68.0319364  18.5109973   4.4510243  68.6786799  18.6385177   5.8135390
  84.7784373   5.6766303  83.4260227  85.6119363   5.2083274  83.3790797
  84.2752342   5.2040994  84.0891464  50.9471125  19.6277795  44.4070762
  51.7646812  19.9684077  44.7700992  50.6845620  20.2786190  43.7561483
  81.7064138  58.6312324  82.3177754  82.6366947  58.4061361  82.3296523
  81.6333623  59.3791099  82.9107126  67.8690026  20.6111353  89.0934853
  68.2605020  20.5432426  88.2226520  68.2984195  19.9242127  89.6033580
  23.9361014   1.9210235  86.6933880  24.1260092   1.8680877  85.7567105
  23.4888518   2.7605642  86.8000231  25.5039620  52.9250390  16.7880235
  26.4134149  52.9001497  16.4905211  25.2509620  53.8447481  16.7082868
  71.1502579  31.6479715  19.1317467  71.6738990  30.9084880  19.4402851
  70.3242015  31.5723443  19.6093901  16.4622275  58.9231668  15.3225655
  16.9358196  58.5213718  16.0509221  15.5741228  59.0512028  15.6558953
  32.0658033   3.6231437  46.3092172  31.7045086   3.5333120  45.4273849
  32.5488381   4.4492321  46.2871424  19.4480351  40.1925445  18.3065486
  18.8772517  39.6992505  18.8956999  19.5776947  41.0327053  18.7464919
  25.1418720  55.2154684  12.3333116  24.6359127  55.6014809  13.0483161
  24.9378683  54.2810924  12.3727556  74.1648004  12.6238653  71.4111598
  73.6137061  12.9367477  70.6937816  74.6993271  13.3810317  71.6503503
   3.3063521  27.5785855  43.8390309   2.9616717  27.3098381  44.6906188
   3.7505369  26.7997641  43.5038159  61.4131028  18.5926543  25.9008532
  61.5227764  17.6542959  26.0547591  61.4547026  18.6857342  24.9490982
  62.3246977  57.6522436  17.5293119  62.4717053  56.7345477  17.3002819
  62.5355022  58.1352561  16.7302548  55.9297434   3.9877485  47.5612183
  55.6116617   4.8444247  47.8461073  55.8245025   3.4257638  48.3288963
  67.5356643  15.6894931  26.8768629  67.2301527  16.5601100  26.6220673
  66.7917181  15.1135337  26.7006625  64.1518243  26.9828425  54.9884976
  63.8108516  26.4651107  54.2591669  65.0813405  27.0944433  54.7890568
  66.8477396  51.4933862  30.3741706  67.3298153  50.8995759  30.9496914
  67.4561679  52.2137360  30.2094189  79.2844586  40.9787046  10.0196956
  79.0109679  41.0752910  10.9318939  78.6616246  40.3542295   9.6477543
  84.6833892  55.4909139  36.3817386  85.3438895  55.9716430  36.8806080
  84.8059439  54.5774448  36.6401690  66.7163550   7.1349568  16.4355957
  66.7119488   6.1830438  16.5359654  67.3756483   7.4385435  17.0596144
  43.1341366  67.1670311  58.5321615  42.7164795  67.2843974  59.3854021
  42.5936103  66.5131867  58.0888211  25.1586861  41.3752448  80.3187680
  25.8268123  41.4166166  79.6345695  24.5729162  42.1073561  80.1261064
  15.9142271  30.9327970   9.5572948  15.6464327  30.7327809  10.4542405
  15.1865156  30.6265203   9.0161272  43.7742758  35.1581187  58.4984616
  42.9455460  34.6866731  58.4137401  44.3634402  34.5328886  58.9206044
  43.2457954  59.4552044  56.8703311  42.7690473  59.4019654  57.6986479
  42.7421251  58.9072326  56.2684382  40.5963335  31.9753731  12.4326709
  40.1620359  31.4982066  13.1397278  40.6231916  31.3536652  11.7053541
   2.5057265  43.1692795  56.8481635   2.0505361  43.9436978  56.5175431
   1.8618993  42.4645200  56.7772241  13.0348052  44.6745387  59.0168386
  12.3068896  44.0564280  58.9511889  13.4290460  44.4906101  59.8694677
  17.5994413  19.4326364  58.0003809  16.8875598  18.8959840  58.3488932
  18.1877314  18.8059373  57.5791982   8.0958071  65.4081052  69.1414839
   8.4434700  65.4467849  70.0324757   8.8502237  65.1762912  68.5998663
   4.7760176  39.1041691  54.9667420   4.7799456  40.0203637  55.2438772
   4.8609998  38.6074155  55.7805268  43.7782003  48.9463457  40.0135270
  43.7587403  48.5978101  39.1222492  43.4754208  48.2216977  40.5607396
  69.5163354  32.3750776  51.8323558  68.6570965  32.5721086  52.2053428
  69.7504833  31.5254521  52.2059103  28.5940289  36.6371809  18.1236392
  27.8817397  37.0882822  18.5768317  28.1767946  36.2360910  17.3612258
  86.1630627  36.2225983  79.0849094  86.8435085  36.4849273  79.7049166
  85.3497765  36.5498262  79.4692520  31.4232706  54.7628826  12.6735589
  31.9948475  54.4594017  11.9682710  30.5553463  54.4368872  12.4355123
  78.3797822  39.3676345  21.3092680  78.8370586  38.6249317  20.9149044
  77.8530096  39.7301829  20.5970172  18.3461001  28.2027145  11.3880083
  18.4902761  27.2594312  11.3127639  17.4928829  28.2813126  11.8147104
  83.8493186  26.4094910  78.7748335  83.0180359  25.9392290  78.7111583
  84.2358915  26.3317630  77.9026227   5.5160082  56.2969800  46.5059488
   5.9525191  55.4805428  46.7490956   6.1315633  56.7309613  45.9152001
  73.3168941  30.6605761  40.4204268  73.5387390  29.8297130  40.0000898
  73.9903355  30.7772935  41.0905653  37.0959553  63.4471229  81.4701127
  36.7214274  63.3166277  82.3412796  37.5936120  62.6471279  81.3010638
  33.0056777  12.1704429   1.0353031  32.4888042  11.5020978   0.5854272
  33.1135398  12.8664058   0.3870491  32.2168627  65.5339996  69.9782106
  32.0829234  66.4616607  70.1724710  31.3449154  65.2074713  69.7561321
  66.7010806   4.9270659  88.5152635  65.7861414   5.0253449  88.2517119
  67.0434435   5.8208250  88.5298985   4.9282313   0.3178673  84.7627001
   4.5493194  -0.5395592  84.5691092   4.2662248   0.9439931  84.4695350
  71.9138989  40.9842832  81.6251208  71.1687285  41.4385163  82.0183450
  71.6879866  40.9117273  80.6977961  67.4278347  25.2285986  28.4841461
  67.3614377  25.4687805  29.4083409  66.5623832  24.8843924  28.2633573
  75.1950084   6.7957000  24.1891014  74.2879563   7.0449545  24.3661901
  75.5110694   7.4606654  23.5774166  30.7542953  55.4094621  22.1024331
  31.4225393  54.8456903  21.7127626  30.3159323  55.8139636  21.3538022
  55.2111914  27.7000100  64.4905510  55.4264900  27.8487496  65.4112871
  55.7379160  28.3421301  64.0146574   3.7851199  47.1533549   8.2508231
   3.6338397  46.2486117   8.5242929   4.4670078  47.0905774   7.5820034
  42.3944872  61.2426670  82.2934342  42.3988645  60.4429739  81.7674079
  41.9109149  61.0060901  83.0849018  30.4416265  38.0774131  67.6088209
  30.8074108  37.8130589  68.4529480  31.2030434  38.1694358  67.0361010
  61.4425528  22.6180541  26.3838995  61.3162640  22.7318347  25.4419139
  60.9054808  23.3030938  26.7820277  69.0104599  52.1162192  12.2306509
  69.6130250  51.4845021  11.8381197  69.2917274  52.1802998  13.1433470
  11.5710419  58.8298183   8.2904812  11.4918921  57.9067526   8.0498220
  10.8722082  58.9716271   8.9290371  68.3816867  -0.1997863  56.3061980
  68.1727415   0.2795154  55.5044227  67.6606855   0.0040441  56.9018844
  38.7559100  38.4410675  28.6213775  38.8696610  37.8960519  29.3999984
  39.1853679  39.2674157  28.8426157  19.4709250  34.5745086  16.7360843
  19.1939860  35.3594477  16.2634246  18.6558049  34.1118373  16.9303687
  24.0779417  21.5185950  17.6959714  23.6765674  21.6328399  18.5574113
  23.4192088  21.8399134  17.0802951  38.2385276  20.4327778  80.3144170
  38.1563332  21.3862272  80.3346675  38.8095544  20.2258374  81.0542386
  38.4946142  51.0989308  38.9171253  37.5727905  51.3198811  38.7842575
  38.9337006  51.9450956  39.0033821  23.7166195  67.7757262  79.4990380
  24.1130910  68.6305861  79.3309409  23.1145011  67.9299358  80.2269835
  72.9090338  53.5642140  54.1654814  73.0410541  54.4517613  53.8322213
  73.7850132  53.1784217  54.1729794  77.7700346  54.8714685  24.4570778
  78.1565291  54.8733921  23.5813780  78.3911383  54.3770963  24.9919218
   5.9476297  43.8268670  81.9815038   6.1309597  42.9244600  82.2428152
   6.5516517  44.3548327  82.5036545  49.1868969  53.4738820  64.7164476
  49.2962502  54.3977326  64.4911172  48.6552933  53.4827857  65.5124062
  74.5337912  26.4297033   6.9022345  74.2126948  25.5463123   6.7212666
  75.4012639  26.4566229   6.4985039   0.6583978  48.4259940  59.7873582
  -0.0024794  48.5538627  60.4678895   0.3116244  47.7159746  59.2471244
   3.4801707  29.9068791  41.5590853   3.0820503  30.4451791  40.8750056
   2.8483545  29.2035076  41.7084461  76.0113137  31.7367160  72.1285649
  76.8090435  32.2654277  72.1105968  75.3703206  32.2855901  72.5803358
  80.7498408  41.1580913  17.6601433  80.1146330  41.5217752  18.2769714
  80.5573010  41.5968472  16.8314978   9.8063755  55.7153754  80.9148850
   9.8388366  56.6706020  80.9670402  10.6880013  55.4602495  80.6430786
  83.5245955  10.8216235  21.0452877  82.9611435  11.2222916  21.7072687
  84.4097941  11.0931002  21.2880955  41.2294798  65.8054092  13.9949021
  41.4527336  65.1423431  14.6481501  40.6544444  65.3509866  13.3792186
  15.8627763  49.8153989  43.5083262  15.8331121  50.1359622  44.4097645
  16.2237523  50.5459367  43.0060886   1.5137231  32.1766272  28.8785651
   0.6479406  31.7992688  28.7228312   2.0908235  31.4193689  28.9772913
  45.3008769  64.9795448  61.3826156  45.8132412  64.7241423  60.6154884
  44.5071088  64.4473459  61.3285010  10.4715699  12.0872312  65.5453277
  10.3680567  12.5425737  66.3808994  10.9641462  11.2959420  65.7631847
  46.6700358  23.5691808  57.3656848  46.7710001  22.6195141  57.3010992
  46.7399272  23.8794231  56.4628578  38.0494969  38.1096466  74.9522220
  38.5714616  38.8383859  74.6164784  38.1444182  37.4229575  74.2921616
  64.1912310  31.0915469   3.2263518  63.2356600  31.1469792   3.2329309
  64.4313932  31.2048697   2.3067259   4.2415986  42.4214938  46.5097321
   3.9194910  41.6406608  46.0594231   4.9904677  42.1122396  47.0194269
  47.1367752  33.9232279  35.1244727  47.3125477  33.1214262  34.6320806
  46.1941772  33.9011419  35.2895575  26.9418564  70.9994679   3.5666125
  27.8115109  70.6940567   3.3084325  26.6565286  70.3743482   4.2329796
  77.6212282  58.0051427  14.9576489  77.4390032  58.5966152  14.2274529
  77.9715867  58.5728753  15.6440602  29.7145680  66.5024076  40.1413580
  29.8434888  65.9638352  39.3606205  29.1504819  67.2180213  39.8482100
  68.9885883   8.6348435  74.0027185  68.9466587   7.6981360  73.8102272
  68.0917019   8.9452866  73.8784138  85.5518607  28.7911848  25.2831240
  86.2586638  28.4433848  24.7393443  85.6167006  29.7407798  25.1816501
  31.7393591  56.9518866   3.3012882  32.0023238  56.9311534   4.2214249
  32.5466146  56.7772197   2.8174887  19.4427154  47.1124724  38.8192728
  20.3346116  47.1780886  38.4780287  19.1498589  48.0201698  38.9002198
  38.0627369  55.4315854  16.8559487  38.7041613  56.1344999  16.9594757
  38.5800224  54.6734097  16.5842557   5.8101727  35.0848401  59.3801469
   6.4806600  34.9668304  58.7072781   5.9330467  34.3436848  59.9732932
  44.0940694  44.2722483  71.1891622  44.6692780  44.2608522  70.4241543
  44.2932982  45.1001607  71.6263130  32.1931362  58.3154565  55.3801630
  31.4681023  58.4253681  54.7649580  32.8588183  58.9337228  55.0787564
  18.4181074  14.7573726  67.9870860  19.3641301  14.6226982  68.0430828
  18.3218534  15.5956499  67.5351367  14.0243258  59.2762229   7.7089448
  13.1043343  59.1082099   7.9129524  14.4154503  58.4059520   7.6322500
  70.6906317  56.1268783  35.0442224  70.2938574  56.1549863  35.9148612
  70.7614284  57.0451657  34.7835155  33.9084568  37.8378345   9.8015572
  33.8788043  36.8890906   9.6781164  34.3454648  37.9560920  10.6449260
  55.4557135  58.4488136  12.1642545  54.9420558  57.6825609  12.4196842
  55.1549241  58.6545960  11.2791493  62.4798874  57.5113671  22.8100315
  61.9192776  56.8457843  22.4113487  62.9764134  57.8763403  22.0775780
  84.6096654   1.9981215  55.5457219  83.9048900   2.5352025  55.9077543
  84.8566209   1.4127286  56.2616548  28.2749128  23.9175279  47.4069647
  28.1941357  24.5593235  46.7014115  27.6064101  23.2610014  47.2112383
  86.4914238  10.9493455   6.2521977  85.9520384  11.4511972   6.8632951
  86.0552487  11.0534674   5.4065371  13.4422957  41.9363309  70.0280323
  14.1245207  42.2245052  69.4216030  13.7888005  41.1316018  70.4134897
  14.2569940  68.8112020  18.8445302  14.6429033  69.4773130  19.4133904
  14.9171092  68.1192230  18.8039748  70.3942207  33.1859003  72.3016859
  70.4936007  33.7533908  73.0660877  70.8799505  32.3926237  72.5275416
  80.0277016  -0.1442537   4.7923803  79.0721069  -0.0907389   4.7779964
  80.3126344   0.7305886   5.0563806  75.9059751  21.2697671  15.0837781
  75.6582431  20.6710641  15.7883456  75.1412448  21.8338672  14.9688417
  76.8845428  32.1469763  48.6426771  76.4944695  32.3298337  49.4974507
  77.8084739  32.3741192  48.7475066  54.8749217  63.2546430  24.9376282
  54.0923986  62.9407568  25.3908001  55.2472565  63.9094690  25.5282224
  28.2999190   3.8745358   1.0800318  28.0669890   4.4576588   1.8024881
  29.1856484   3.5772562   1.2882145  17.3670885  47.7565802  57.6266276
  18.2776636  47.6630296  57.3467471  17.0341665  46.8598537  57.6623553
  44.1738854  60.8942458  35.4461534  44.1176283  60.2811014  36.1790387
  44.4236548  60.3514173  34.6983671  38.8917890  43.1026313   8.3053774
  38.2613386  42.9656446   9.0124833  39.4704390  43.7922535   8.6306732
  55.0226334  26.4503507  20.1457217  55.3931915  25.8934854  20.8304257
  54.3234061  25.9225514  19.7600521  44.9746129  58.9648124  33.1805367
  45.7607983  58.4916112  33.4529793  45.0905639  59.1005083  32.2401252
  80.0021202   3.0916502  28.8510050  80.4708382   3.8938497  29.0812465
  79.5733503   3.2949779  28.0197131  68.9882155  67.1171602  23.8063954
  69.8264909  67.2036273  24.2603223  69.1078520  67.5997722  22.9884684
  72.8964723  30.1458106  10.6740894  72.9699439  31.0403578  10.3414952
  72.7045221  29.6172821   9.8994639  60.9696337  43.3118002  36.5848194
  60.2871902  42.9359902  37.1409395  61.7713711  42.8629371  36.8530935
  72.8765157   5.7346486  17.9203569  72.5852411   6.4655106  17.3751673
  73.6325163   5.3756924  17.4557652  27.1783557  26.2035752  42.8740081
  27.3541025  26.7239145  42.0900490  26.4164363  25.6722266  42.6429683
  27.6312418  53.2662247  50.1162268  27.0702270  52.5753365  49.7638525
  28.0427999  52.8717041  50.8851256  16.8494524  34.4904880  72.1726486
  16.6404899  34.6864194  73.0859817  16.5939116  33.5749866  72.0595643
  85.8648866   5.9699635  26.7833370  86.1271130   5.1672742  27.2340685
  85.0912742   5.7193291  26.2784229  39.2610519  48.0726147  75.9095423
  39.7709901  47.6963917  76.6269342  39.5015117  48.9991079  75.9049252
  48.0120241   5.4253780  19.9592310  47.6582174   6.2524788  20.2862737
  47.2814208   4.8102903  20.0234016  42.0699234  13.7452019  69.6073674
  41.5538580  12.9526227  69.7547664  41.4413114  14.3797713  69.2632738
   6.1171896  44.6992422   4.4925933   6.5356865  45.0854461   3.7232178
   5.9026940  43.8055065   4.2252735  48.7311464  64.4245608  11.7604630
  48.6522087  63.7118583  12.3945416  47.8897984  64.8788727  11.8048021
  41.4818350  65.0376341  60.6638612  40.9287781  64.6009187  60.0160652
  40.9617572  65.7856453  60.9575111  29.4966508  25.4833511  49.3017284
  29.1893374  24.8562043  48.6471467  30.2394081  25.0481446  49.7202242
  40.7044976  52.5872783  53.3892942  41.5309169  52.1299808  53.5446708
  40.8130768  52.9925111  52.5289287  75.5521380   0.5735636  17.9385583
  75.0550949   1.3187117  18.2760999  75.4210968  -0.1162216  18.5891398
  55.1189468  24.0659419   9.1041842  55.5822446  23.2654186   8.8577105
  55.4778143  24.7383210   8.5250880  49.9233633  13.1071139  15.0351509
  50.4854658  13.7834913  14.6572801  50.0138430  12.3614776  14.4417945
  22.4395506  49.1245124  48.8647651  22.4281748  50.0684430  48.7063435
  22.0363559  49.0214455  49.7267646  25.3352860  46.1914240   8.9824558
  25.8529003  46.9868513   8.8575447  24.4757071  46.5064508   9.2619447
  31.0913523  46.4310193   1.3983327  30.6614539  45.9318493   0.7038915
  31.7827086  45.8509816   1.7174167  22.2196103  51.8297818  48.3446739
  22.2696850  52.3451489  49.1497336  21.8105446  52.4172698  47.7092567
  11.4273302   1.8277502  83.0251279  11.3122144   1.4232243  82.1652797
  10.7063339   2.4535885  83.0938504  62.9131530  21.2226841  51.0100320
  63.3323545  20.5464922  51.5422597  62.3453888  20.7381074  50.4108150
  80.1231340  24.8254214  41.4744130  79.8190426  25.2661447  40.6809880
  80.3485904  25.5378096  42.0726641  76.5613265  67.5390838  58.1254688
  76.6545662  67.6659172  59.0696359  76.8628691  68.3627518  57.7422262
  61.1242220   7.7432915  11.4326810  60.5675761   6.9973909  11.6563088
  61.3990952   8.0988955  12.2777978  56.6989571  43.3972016  72.4252995
  56.7628203  44.2408025  71.9775376  55.8609024  43.0357420  72.1367804
  20.8014882  35.6039455  68.4496489  20.3465480  35.3339228  69.2473637
  21.0650922  34.7826823  68.0345929  13.1488299  44.4087282  28.8286912
  12.8339954  43.6843592  29.3694320  12.4037997  44.6327542  28.2710406
  76.0130886  11.3038828  29.2026353  76.9499185  11.4986886  29.2277814
  75.8215482  10.9367444  30.0656263  53.0927200   6.9948305  35.6173153
  53.6345060   7.1715450  36.3863873  52.7717149   7.8553290  35.3476304
  78.5921078  20.2168101  35.4215536  78.2573927  19.5623540  34.8084590
  79.0377810  20.8579054  34.8678353  50.3061627  43.2213095   7.9161211
  50.9348065  43.4446751   7.2297199  49.4593103  43.4946577   7.5634829
  56.4783294  54.6108835   5.4029084  55.9692322  55.3100186   4.9927109
  55.8341643  53.9321796   5.6045126  58.7913706  22.2231409  67.6898963
  58.4569806  21.9397837  66.8389416  58.4419099  21.5829675  68.3098053
  58.4526697  48.0182914  71.8413796  58.8367505  48.6072400  72.4908820
  58.3771978  48.5511821  71.0498220   4.6613848  30.3081404   7.5783982
   5.4166666  29.8390698   7.2237800   4.6405473  30.0638415   8.5036634
  79.1392914  27.6560185  71.8967273  79.6482862  28.4652887  71.8494215
  78.4745455  27.7509458  71.2145737  11.0738057  44.5217074  47.1828484
  10.5242494  44.2065839  46.4652713  10.5756119  44.3164958  47.9740013
  42.9126534  53.5344792  29.4126243  42.7206490  54.3714725  29.8354815
  42.2435812  53.4502887  28.7332966   3.8966704  67.4775331  67.3210723
   4.7179722  66.9940035  67.2322215   3.9256369  68.1295393  66.6208718
  68.6817815  28.9509843  32.9294426  68.7086826  27.9996761  33.0320140
  68.4422272  29.0863548  32.0126436  24.1687724  16.1764141  48.8910773
  24.9763016  15.6701136  48.8028259  23.7607403  15.8394074  49.6886788
  66.7719218  66.8367218   8.1907674  67.4005598  67.3156764   7.6507224
  66.1961620  67.5140103   8.5457502  81.1048850  19.1367257  21.4108571
  81.8590225  18.9745961  21.9776221  81.3783323  19.8627480  20.8501878
  68.5186269  25.0635041  35.6443150  69.4050947  25.0738100  36.0052867
  67.9833439  25.4931716  36.3114655  76.0900777   6.4698645  73.4512033
  76.5807734   5.7086699  73.1413123  75.2573600   6.1099243  73.7565820
  84.3727276  68.6889749   3.8153133  84.0538981  68.6464273   2.9137761
  83.5975204  68.5226456   4.3516156  33.0108859  61.9927699   4.2413626
  33.4616489  61.5180124   3.5430432  32.4937007  62.6562772   3.7847343
  37.0699301  59.4901235  35.8907855  37.0221261  60.3142433  35.4062515
  37.7608598  58.9939487  35.4518566  52.4830557  37.4530788  46.2853565
  52.6264321  38.2661167  46.7697575  52.0939971  36.8579149  46.9261726
  57.8108425  18.5611774  71.3432957  58.1905071  18.8768765  72.1633083
  57.0079997  18.1123119  71.6082390  73.3018339  30.0271659  33.2033095
  73.8257126  29.4483548  33.7571693  72.4020548  29.8942995  33.5015979
  41.2298198  60.8641521  77.4731889  42.1418336  61.1036851  77.6377687
  40.7209335  61.5671311  77.8770295  49.3869551  21.4262896  88.1298127
  48.5560700  20.9834104  87.9574181  49.3287033  21.6965123  89.0462287
  21.1847839  55.1724265  27.8961474  21.8617235  55.2556610  27.2245399
  20.5738521  54.5264115  27.5416636  27.2638954  56.6814873  37.3072503
  28.0744502  56.6090867  36.8032752  27.5419261  56.6064267  38.2201012
  76.6701857  68.8063841  12.4631316  77.5211584  68.4075088  12.2815391
  76.4898312  68.5809010  13.3757440  44.0910842  50.6383838  55.7936168
  44.3702910  49.7269250  55.7069089  43.5428944  50.6473462  56.5782438
   4.6110016  45.1987802  56.6181590   3.9746845  44.5684501  56.2804960
   5.0017605  45.5873016  55.8354774  69.8438540  23.7907194  41.9642170
  69.1763034  24.4589119  41.8088891  70.2218072  24.0224117  42.8125695
  43.5976955  39.9846476  39.4981229  43.3725920  39.9441180  40.4275945
  43.2558367  39.1684910  39.1330846  15.1283517   3.4735133  56.1208271
  14.5879855   3.6080520  56.8993741  15.9866779   3.2261909  56.4648323
  78.9919772  22.5942413  39.1743290  78.4360354  23.2679797  39.5657842
  78.4000411  22.0896665  38.6164331   6.2586962  30.7527315  52.6301968
   5.8287126  29.9097904  52.7744056   7.1079303  30.5266167  52.2508482
  58.0592372  19.3396327  52.5805721  58.0503099  18.5941164  53.1808701
  57.1384266  19.4812370  52.3608268  82.7874539  24.6061870  88.5940242
  81.8963641  24.2902054  88.7435115  83.1774977  24.6449203  89.4672924
  77.2022461  29.7018641  53.5208351  76.6058722  29.8519004  54.2543603
  77.0983225  28.7731273  53.3137614  70.4258044  47.4646166  54.7738254
  71.3721182  47.3335323  54.8333160  70.2442082  47.4761173  53.8340795
  10.2437708  34.0039126  29.7789642  11.1961947  34.0977113  29.7610100
  10.0345498  33.5300722  28.9740209  20.1231237  15.8766947  80.9571136
  20.2595263  15.5062161  80.0851206  20.8470872  15.5318483  81.4797891
  14.3160283  39.4437379  88.1827754  13.6537272  40.0912415  87.9412629
  15.0984515  39.9611090  88.3734921  54.8392558  27.9387232  12.3466975
  55.5078767  27.3061801  12.6095041  54.0581308  27.6782849  12.8348035
  61.7736363  27.8702725  40.4914610  61.3962720  28.0004330  41.3614531
  62.2355635  28.6878625  40.3059838  72.9629716  12.3914437  81.6809204
  73.6949163  11.7876552  81.5547135  73.0420058  12.6766839  82.5912080
  47.8130430  19.6980991  18.7848784  48.4787560  19.2162571  18.2940766
  47.2100877  19.0232343  19.0967022  43.0734598  35.6654299  68.9467410
  43.6423952  36.3895898  69.2077711  42.9896641  35.1302188  69.7358920
  49.9999170  10.6528285  19.8530230  50.1995264  11.0714108  20.6903860
  50.1362540  11.3415837  19.2024383   4.9874303  52.4117323  32.7385525
   5.7577441  52.9750038  32.6638956   4.2618047  52.9567050  32.4340790
  68.7833073  36.8760584  50.2406410  68.2199702  37.4298278  49.7000649
  68.9750905  36.1180951  49.6884247  53.1872428  58.3594873  19.0765229
  52.8078068  58.2000970  18.2123152  53.3479156  57.4855673  19.4324442
  66.7284037  23.4712939  11.0945150  66.7436884  24.0591043  10.3392157
  67.6473958  23.2488594  11.2435392  69.9446822  52.1321886   6.3974545
  70.7344080  51.6382049   6.6177841  69.8204924  52.7274669   7.1366787
   6.4660431  45.5092402  16.9865948   6.0894607  46.1114674  17.6282644
   5.7463312  45.3199390  16.3845884  76.6578561  28.3989489  26.8647729
  76.6479811  28.5127218  25.9144097  77.5834983  28.2913765  27.0835115
  39.4496366  33.4129012  74.7426232  38.5783469  33.5634283  74.3759794
  40.0158054  33.3053937  73.9783412  63.5789452  19.4618067  44.6586518
  62.7434501  19.1689135  44.2947928  63.6487277  19.0044765  45.4966323
  29.3046443  21.0707915  22.1403417  29.8676521  21.8369462  22.0296124
  28.7181624  21.3064244  22.8591936  45.2206742  11.7799990  16.3211662
  46.1002318  11.4381406  16.1607194  44.8878394  12.0023698  15.4516813
  69.4832409  38.3595763  70.1610381  69.9864532  37.5563905  70.2948356
  68.7232236  38.2644806  70.7351134  83.2245814  62.5332600  56.5037593
  83.6913183  63.0036545  57.1944962  83.5565991  62.9118211  55.6897031
  58.9010945  53.1493788  13.4556849  58.5090930  52.4459635  12.9382165
  59.0351269  53.8610651  12.8297698  66.0304035  32.3192333  38.0378175
  65.7933947  33.0045799  37.4130305  66.1083195  32.7754796  38.8756721
  47.5385300  50.4011930  25.6878785  47.6593508  51.2655390  26.0809945
  47.5961757  50.5566592  24.7451489  63.6706272  14.9868199   9.7075131
  64.5358812  14.7462974  10.0387476  63.0858142  14.8665328  10.4556819
   5.3846340  60.3335491  33.4945519   5.5061973  60.8034964  34.3195390
   4.9934442  60.9794765  32.9063511  86.9867811  41.6365316  12.5440938
  86.1457223  42.0839254  12.6373183  86.9470688  40.9179381  13.1751866
  73.8342796  49.0364010  16.5909930  73.9409973  49.2826402  15.6721844
  74.5297539  48.3982983  16.7502799  46.5834924  53.8904496  86.6801104
  46.7320343  54.7921465  86.3953125  46.0393772  53.9731857  87.4632612
  69.9876022  37.6840888  11.3613914  70.8234543  37.2216154  11.4222308
  69.4165407  37.2291354  11.9803728  28.0582024   0.1661706  62.6231191
  28.3339202   0.5670972  63.4474184  27.1101613   0.2960358  62.5989346
  68.3339176  34.2161199   9.2810975  67.9301786  33.5698788   8.7017883
  68.9798643  34.6599517   8.7315540  11.1798723   6.4062812  16.6314902
  10.2676261   6.1163988  16.6288572  11.4328573   6.3926397  17.5545527
  11.1233780  22.6248250  57.2849651  11.5035835  22.2791107  56.4774026
  11.2816205  23.5677678  57.2396888  19.0452456  10.8802865  70.2079212
  18.5751264  11.1068084  69.4054826  19.9597311  11.0885218  70.0166459
  23.7449941  50.6817089  69.0882747  23.0935783  50.3321880  68.4802250
  24.5183541  50.8387472  68.5465320   2.7458002  10.1399532  86.6106196
   2.8161671   9.2506878  86.2635067   2.3097823  10.6342091  85.9164789
   9.9289348  41.3302766  49.4426050   9.3990317  40.5871886  49.7311439
  10.6798427  41.3338130  50.0362013  77.5452541  37.1592180   5.6441993
  77.3164156  36.9158859   6.5412245  78.3104918  36.6223650   5.4382091
  10.1602597  70.9673936  85.4081186  10.6255782  70.7019449  86.2013698
  10.8220276  70.9277989  84.7176641  44.6610758  67.4323350  13.6677718
  44.9371399  66.5780313  13.9997139  44.1173305  67.2292446  12.9066363
   7.2579885   4.0979899  24.3190779   6.8168494   3.3779948  24.7698940
   7.2455687   3.8458922  23.3957555  66.2059551  33.8446013   0.8799270
  67.0247382  33.5479521   0.4826546  66.1146194  34.7525140   0.5908180
  85.9915181  48.6801737  70.4942995  86.7097608  49.2216532  70.8216513
  85.3766513  48.6299072  71.2261766  21.9442466  46.1226804  69.3761132
  21.3060339  45.6986168  69.9497737  21.4304613  46.7522736  68.8702784
  85.5951750  26.2374355  33.6334964  85.9699391  26.5714721  34.4484831
  86.3461429  26.1349065  33.0488881  57.3829164  23.5707382  57.0753654
  56.6346476  23.1101515  56.6956477  57.2652255  24.4817063  56.8060743
  19.8660681  13.2854956  63.6536671  20.5335779  13.0173427  63.0221954
  19.1004792  12.7551591  63.4326496  53.3628278  48.8235695  66.2292614
  53.0893532  47.9290994  66.4326493  54.0676948  48.7190482  65.5901451
  75.4796293  56.9982101  58.8308715  75.6318147  56.4823757  59.6226962
  75.9000636  56.4956141  58.1331150  57.9344811  13.3848118  31.4405771
  58.8893238  13.3515013  31.3822870  57.7445055  13.2090827  32.3621304
  60.6161027  43.1015248   0.6046961  60.6851996  44.0540511   0.6691248
  61.2067693  42.8663924  -0.1108859  54.9262335   9.4494420  46.0664280
  54.3907540  10.1353007  46.4652906  54.9860036   9.6982426  45.1440627
  70.7567875  25.6676875  12.6032127  71.6674366  25.9583737  12.5536986
  70.2746766  26.2982021  12.0681872  43.3272511  21.1083354  40.9050748
  42.9166921  21.9686989  40.8187739  42.9888513  20.6060339  40.1638523
  67.7228056  11.0943274  14.6200603  67.5401248  10.7604715  13.7417667
  66.8711977  11.3823809  14.9487257  52.8710000  67.1681664  22.8519485
  52.7811820  66.8256857  21.9626389  52.5463727  66.4643147  23.4135905
  66.6564023  57.8597533  49.8191914  67.5737957  57.6675949  49.6250356
  66.1808549  57.5686120  49.0411662  56.8944760  66.9556312  13.8072333
  57.5275730  66.3568917  14.2033785  57.2160588  67.8283222  14.0335666
   1.5290969  17.9030124   9.9819669   2.4044470  17.5184335   9.9362150
   0.9790507  17.2048917  10.3373659  35.5927741  21.3016648  87.8987418
  34.6439996  21.3872205  87.8052586  35.8524399  22.0650959  88.4144728
  82.7063291  25.9473449  52.3666872  82.9079600  26.1030297  53.2893675
  81.8018107  26.2438410  52.2658487  57.6503864  55.9190663  19.2847382
  58.1275786  55.5780281  18.5282909  57.3060214  56.7622863  18.9904179
  54.8249611  12.3297343  57.2018743  54.3156805  12.9582191  56.6901399
  54.3521083  11.5031109  57.1052522  12.2734896  45.6942193   1.5509242
  11.5988957  46.0679392   2.1179236  13.0160214  46.2922738   1.6358306
  13.7515427  61.9503467  60.5614278  14.6191413  61.5465378  60.5403851
  13.1810764  61.3149636  60.1288908  61.2148954  61.8381462  25.9531544
  61.6884386  61.2925880  25.3251776  61.8981329  62.3406659  26.3968801
  17.9471929  12.5173596  26.0964774  18.0748440  11.9044590  26.8205560
  18.4216583  13.3048768  26.3628063  82.0572770  32.1483315  32.6231321
  82.0525099  31.3427071  32.1062391  82.6866170  31.9793260  33.3242741
  26.6379358   9.3038313  18.2955886  27.5845648   9.2247618  18.4133737
  26.2931600   8.4462418  18.5443890  27.8883756  67.1630708  64.5189865
  27.4884457  66.3532522  64.8359751  27.2269511  67.8359361  64.6802376
   7.7708874  61.4274307  32.4735443   7.1998642  62.0818346  32.8759371
   7.5705921  60.6157213  32.9396359  84.9511511  32.7938792  36.6489999
  84.7884453  32.5093648  35.7496612  85.8776163  32.6037470  36.7964579
  38.1387100  49.1478477  85.5164940  37.3713100  48.5826795  85.6054542
  37.7783546  50.0319382  85.4475020  75.4498058   5.3798121  87.7065426
  76.2648040   5.1650510  88.1602910  75.3576266   4.6959441  87.0431729
  13.9842504  14.4891854  20.1894777  14.1556007  14.1394770  21.0638774
  13.1870176  15.0090485  20.2914288  42.9872810  63.2153386  41.1658199
  43.6371860  63.9017001  41.3166948  43.2992641  62.4723479  41.6824080
  10.6487514  49.3419377  26.4145426  11.2588230  50.0793950  26.4003603
  11.1469828  48.6264879  26.8096740  72.4359492  68.4621535  83.7201088
  72.9375814  69.2745759  83.6525313  73.0984892  67.7713258  83.7255574
  65.8716923  48.0181198  27.4850487  65.2340501  47.4509641  27.0514837
  66.7211599  47.6363964  27.2638613  53.7310946  40.5794387  77.1780812
  52.9556147  40.9698006  76.7749927  53.3981819  39.8131744  77.6452427
  24.5083681  18.6012415  10.4041556  25.2921417  18.4039737  10.9170067
  24.6636419  19.4799795  10.0578301  16.6297861  52.1683777  41.8026297
  16.8884105  52.1670496  40.8810314  16.9694542  52.9949865  42.1455224
  55.6360015  43.7523768  88.7403645  55.9599517  43.2547948  87.9895648
  54.6971214  43.8454846  88.5789120   8.0825195  15.3111284  73.4140996
   8.2376673  16.1625507  73.8230508   8.1493570  14.6838797  74.1340466
  13.7325620  45.8492387  12.5772330  14.2533757  45.2523122  12.0399587
  13.1472032  45.2765339  13.0728096  67.2839025   7.8224297  83.6413085
  66.9198386   7.1986512  84.2694724  67.8883730   8.3563400  84.1568539
  65.2940267  41.7090458  58.6650342  65.1196499  41.9499407  57.7552022
  64.8752344  42.3987948  59.1799043  86.7170776  20.5583714  17.4437000
  86.2451793  20.1416829  16.7226490  87.0841360  19.8288570  17.9430082
  56.7972866  13.9458372  54.6935937  56.6339409  14.6951250  55.2664094
  57.6324903  14.1452803  54.2706409  45.0563520  42.4008893  52.0337057
  44.4809442  43.0133537  51.5754208  45.9258858  42.7960043  51.9702474
   0.6909808  63.4363240  10.0297938   1.5263453  63.8989340  10.0960514
   0.3793455  63.6301032   9.1457322  68.5716670  27.0654708  16.5454334
  69.4541193  27.3910666  16.3679589  68.2910982  26.6715159  15.7194113
  62.1242233  61.0989825  58.8092378  61.3627314  61.5859692  58.4942683
  62.4172125  60.5952226  58.0498860   1.6604820  23.0466706  17.4690577
   0.7518912  23.1918490  17.2052060   1.6217292  22.2914128  18.0558420
  67.0095084  47.9076552  37.0656395  66.4811255  47.1601345  36.7858967
  66.6268255  48.1717366  37.9023274   5.7585923  12.0219823   5.9576904
   4.8496474  11.9932965   6.2564013   5.8150509  12.8245180   5.4390568
  61.4359882  13.2556919  87.2629671  62.2177423  13.3750674  87.8022646
  61.1670732  12.3519369  87.4277202   2.5718661   2.7843951  49.1779532
   3.1628134   2.0538310  48.9955000   1.7869708   2.5913683  48.6652040
  79.1692785  25.7456656  61.4599959  78.8920162  26.6117400  61.7587812
  79.4731709  25.3045644  62.2532871   2.0584024   3.5495733  78.7602426
   2.8124673   4.1219919  78.9015045   1.5471155   3.6237388  79.5660446
  66.3415983   5.2371028  67.9964937  67.0760608   5.7156399  68.3809400
  65.5740561   5.7707461  68.2022499  76.2773562  54.9146257  37.4594271
  76.4873122  55.5534275  36.7781910  76.8183853  55.1734704  38.2054290
  42.3332045  34.9721557  24.8528130  41.5145796  34.6847577  25.2571490
  43.0178389  34.5511751  25.3727003  66.0527745   6.0695491  52.7123036
  65.8150115   5.4248476  52.0459249  66.7179644   5.6312704  53.2430259
  79.2271081  68.7310748  61.1152288  79.1626569  69.4807344  61.7069115
  79.9194737  68.9708993  60.4993182  73.7913574  64.4201172  37.4499980
  73.8976128  65.2597030  37.0027427  73.0021899  64.5295505  37.9805363
  56.6961817  13.0573583   2.4491904  56.8934421  12.6527652   1.6044274
  57.5346059  13.0688301   2.9108667  86.1842826  69.6068746  20.7378091
  86.9021643  69.7072087  21.3629577  85.6592359  70.3997737  20.8467528
  34.7153617  46.2311257  77.4305932  35.1156090  46.6791626  78.1757756
  35.0338262  45.3306368  77.4932987  21.6137782  38.5292041  17.8789823
  22.0835562  38.9113293  17.1376856  20.8272848  39.0675814  17.9673556
  55.2853546  43.3823504  75.9636800  56.0706060  42.9649844  75.6095365
  55.1496760  42.9576595  76.8107105  70.4286233  10.3921929  72.0708108
  69.6487675  10.9442797  72.0137412  70.1671044   9.6660452  72.6369815
  60.4858795  36.6237538  15.9855552  61.2039996  36.0259977  15.7776537
  60.8320818  37.4931777  15.7843637  76.2258248  56.2742107   2.6876195
  76.7776590  56.1540444   1.9147865  75.6434533  56.9976752   2.4559422
   4.6529775   5.8587259  86.4041991   3.9457734   6.2588450  85.8982357
   5.4010696   6.4411138  86.2722355  24.4652755  10.4880035  68.2243893
  24.0625865  10.2666652  67.3846972  25.3332854  10.8191365  67.9938645
  48.2445676  44.7930603  32.1999289  48.1362917  44.0102809  31.6597766
  47.5205167  44.7548713  32.8248479  20.5198090  60.4717926  11.5819590
  20.8945975  61.3426668  11.7136535  19.6096507  60.5573210  11.8657348
  69.5532613  45.1191863  25.5003681  70.1835928  45.0165685  26.2133783
  69.5072040  44.2533174  25.0949281  82.6770743  55.6617500  49.2446311
  82.5529861  54.8690108  48.7227130  82.3720297  56.3711179  48.6789661
  28.5680422  43.2219153  82.1152008  28.1251712  42.4084615  82.3568410
  27.8724941  43.7783000  81.7646571  62.3737385  40.3088539  12.6536567
  62.6867190  40.4401678  11.7586529  62.5384559  41.1447131  13.0900502
  23.4447755  24.5941295  72.5697307  23.5752354  24.8185304  71.6483967
  23.8098370  23.7134706  72.6557645  22.6076676  63.9913636  47.7486342
  23.5444002  63.7977801  47.7127275  22.2773332  63.4449338  48.4617439
  44.9482416  38.2871115  21.3420776  44.0109521  38.3785460  21.1707303
  44.9989987  37.6735304  22.0749990  85.0363601  17.5067279  59.0606513
  85.9217366  17.1547798  59.1526994  84.5807983  17.2190170  59.8518009
   7.7974298  36.1418024  42.3538618   7.3296868  35.3094775  42.4222986
   7.5517653  36.6204032  43.1455827  24.3200625  53.9911198   1.1351103
  23.8159215  53.1806147   1.2069093  24.3903550  54.1468261   0.1932789
   1.8865774  55.5316447  84.2664791   1.4245751  56.2213975  84.7429525
   1.6320157  54.7224441  84.7099028  61.1795280  36.4393193   8.1338577
  61.6779098  37.1085627   7.6648580  61.8394595  35.8115174   8.4281144
  64.4445040   5.8771367  87.6761009  63.4988036   5.7379323  87.7261481
  64.5381522   6.7541897  87.3042947  23.6482795  12.5756086  70.7262654
  23.4275311  12.5420992  71.6570602  24.5609579  12.8634803  70.7067746
  49.3497947  45.6002867  60.3741801  48.9273396  45.2952870  59.5712239
  50.1980802  45.1569073  60.3818128  68.5707662  29.2389902  68.6367561
  68.2940186  29.8373348  67.9427630  69.4917912  29.4535331  68.7847975
   9.8576725  52.5430476   4.1245602  10.7596151  52.6144677   3.8121016
   9.8689994  52.9597329   4.9862312  65.7100127  53.7199553  83.8795185
  65.1935049  54.0044729  84.6335086  66.1560462  54.5128336  83.5818107
  83.5195958  59.8829577  20.3869299  83.8257304  60.6407846  20.8851384
  82.5657342  59.9626957  20.3915901  67.3138280  44.9195936  13.2314402
  68.0372145  44.7523128  12.6273202  67.7320786  45.0045950  14.0882209
  71.0077359  38.8935806  27.1326390  71.4076876  38.1519775  27.5868365
  70.1075973  38.6145556  26.9649268  82.0866670  46.6794302  36.7907491
  82.4049278  47.5799710  36.7277554  81.3897473  46.6254056  36.1368255
  39.6070493  24.9915796  85.9151738  39.6301710  25.9449668  85.9973323
  39.1674024  24.6931620  86.7113456  55.2237908   3.7163866  64.0170764
  56.0318555   4.2230486  64.0980520  55.3771218   2.9345590  64.5476111
  35.2944375  44.0331686  13.2082549  34.3698944  43.7868549  13.2362078
  35.3459554  44.8303979  13.7355150   3.3276267   6.6912087  73.7621420
   2.6582323   7.1023727  74.3090305   4.0837187   6.5944902  74.3411086
  61.6995541  29.0716668  64.0041994  61.5925687  28.1314687  64.1484686
  62.6311081  29.1801214  63.8126883  44.4409187  53.8062366  52.7683738
  44.1595280  54.6359986  53.1537905  44.1076435  53.1385002  53.3677798
   6.5581220  54.8894168  -0.0966852   6.1890787  55.0923788   0.7628759
   5.8039492  54.6298432  -0.6259081  55.8545681  29.4798112  24.7787785
  55.1173878  29.3373470  24.1850606  56.0007401  30.4255223  24.7565046
   2.8965505  62.5820754  47.1817467   3.7910485  62.2473218  47.2453488
   2.9648769  63.4996480  47.4456101  66.7419157   1.9043708  43.9158129
  66.4208941   1.9440607  44.8167023  65.9955050   2.1791091  43.3832514
  38.2999172  59.7443443  53.7140309  39.1066534  59.7047020  53.2003802
  37.5996408  59.6583460  53.0671545  12.8477924   3.6516631  54.6608091
  12.2178400   3.5229305  55.3699069  13.6920733   3.4146015  55.0445060
  66.5777282  44.1709131  41.5799408  66.4367696  44.2002510  40.6336313
  67.5293632  44.1907861  41.6810732  53.6725918   0.3007707  35.8946767
  54.6266420   0.2951564  35.9720618  53.3830955   0.9382313  36.5474152
   2.4187588  69.3472908  79.2119361   2.2520873  68.4645338  79.5423791
   1.6358754  69.8439301  79.4500008  23.2635520  43.3248279  79.6654910
  22.8781239  43.1209855  78.8133612  23.2922080  44.2812093  79.6927929
  23.5701544  43.8886736  24.6546257  23.4294940  43.7184059  23.7232529
  22.7775729  44.3450566  24.9370456  77.6398369  19.3352905   6.3815885
  78.5583613  19.3238723   6.1124894  77.6693260  19.4731370   7.3283517
  57.4319383  10.9422038  64.5753868  56.8142528  10.7519909  65.2814432
  57.3954371  11.8934261  64.4750093  25.5609731   1.6889310  30.7149388
  24.6885098   1.5275662  31.0741060  25.6182709   2.6417698  30.6438972
  15.4916530  40.8906774  39.7812261  16.1897212  41.3417141  40.2560930
  15.5560252  39.9799726  40.0688108  47.6443986  68.2787419  84.5378648
  47.8725844  67.4704518  84.0787022  46.8276971  68.5643997  84.1284380
  43.7423745  50.5925483   5.9780587  44.5871581  50.4035193   5.5695975
  43.7406857  51.5424206   6.0962598  21.6737665  17.1768205   5.1587372
  21.6743518  17.2245278   6.1147474  21.6586114  18.0903606   4.8733487
  29.7735789  59.0376014  60.0575275  30.3641947  59.0862148  60.8092200
  29.0757674  58.4459758  60.3390771  74.6157215   9.2567595  56.3634584
  75.4163179   9.7347298  56.1470755  74.7380160   8.9839149  57.2727612
  67.5585800   8.8228747  76.7017177  67.9715256   8.5679285  75.8766661
  66.7435580   8.3215241  76.7265868  28.6203415  37.8167604  77.7436143
  28.2951405  37.3101721  76.9994070  28.0408871  38.5774000  77.7871084
  50.1280596  29.4221701   2.3588117  49.5936284  29.0947587   3.0822872
  49.5530120  29.3735714   1.5951427  40.0288542  56.2375378  40.4607190
  40.9330990  55.9840892  40.2754168  40.1051548  56.9517074  41.0934684
  48.0193433  66.2985389   3.6750730  48.0895886  65.9071394   2.8043813
  47.3716535  66.9958500   3.5726674   5.0097520  22.2070888   9.9633674
   5.1308855  21.7928212   9.1090016   5.6788775  22.8908282   9.9950436
  62.2128575  40.3792132  30.7831627  62.8489881  40.4723912  31.4923084
  61.6425447  39.6641560  31.0654185  82.1033480  25.9523931  10.4753570
  82.7092605  25.2395510  10.2729759  82.2696511  26.1539298  11.3962034
  54.2862030  44.3436459  48.6322116  53.3540990  44.3788606  48.8470930
  54.4276672  45.0946673  48.0558554  23.5067629  43.5925489  22.0096711
  24.2852002  44.1389497  21.9014432  23.2863152  43.3111501  21.1217244
  71.5765495  69.7612363  25.6807808  71.3794034  69.0982512  26.3424574
  71.6874463  70.5711108  26.1788140  24.2795612  67.1230649  30.9223133
  25.1743903  67.3358517  30.6572953  24.3144413  66.1968936  31.1615245
  28.8544970  44.2956520  77.0573174  29.5164023  43.7194043  76.6751501
  28.6666797  44.9340671  76.3692894   4.1562965   5.1527838  17.6535142
   3.3470624   5.4140635  18.0929512   3.8769274   4.8798333  16.7796248
  50.6027152  19.8916688  79.0731969  50.4956006  20.5635355  78.3998817
  50.4248413  19.0676635  78.6197567  42.5680283  67.3630880  44.5840667
  42.9638601  67.5644070  43.7361164  42.1603567  68.1843011  44.8591029
  36.4054367  36.3390185   2.9622036  35.9754407  36.8617125   3.6390538
  36.8500611  35.6418291   3.4443528  10.3818794  41.5077827  63.1506706
  10.8488747  41.4727555  62.3158530   9.8422373  40.7172239  63.1565896
  21.8692686  40.1457787   7.9535415  22.0071578  40.5935069   7.1188212
  21.8411879  39.2166408   7.7251864  49.8396689  67.2105752  53.5073183
  50.0518758  66.8042407  54.3476113  48.9001342  67.3867653  53.5569525
  25.7162709  65.3527035   9.4814801  25.8037931  66.0752523   8.8597929
  26.2076714  64.6338588   9.0839631  53.8698521  70.8588845  44.2994341
  54.3104441  71.6267524  44.6634248  54.0853662  70.8786476  43.3670205
   0.5841481  70.4355600  37.7954329   1.5069749  70.5830087  37.5883547
   0.4330530  69.5164759  37.5747828  16.5152910  20.5710069   7.5900695
  16.3189873  20.2099060   8.4545363  17.2400423  21.1773597   7.7427246
  83.3294495  21.9260914  55.0075455  83.2848974  21.0019289  54.7622485
  82.4930844  22.0998485  55.4394409  55.1279836   4.0191934  54.5669454
  55.7372801   3.7356052  55.2485372  54.2702006   3.7280286  54.8762400
  51.5022727  52.3869583   5.8523541  50.9497533  51.8075006   5.3277753
  51.1999081  52.2571747   6.7512221   0.7135563  18.9880400  82.2703185
   1.4689817  18.4055152  82.3492442  -0.0442782  18.4137304  82.3802605
  70.4216329  32.7698742  85.0563361  70.7252718  33.6665546  85.1977560
  69.5019672  32.7838167  85.3213878  58.6877236  13.5818755  43.6588590
  58.6789294  12.9787372  42.9156372  59.3732531  13.2427493  44.2344235
  38.5557220  35.7779727  27.4773512  38.8253642  36.6169997  27.8509268
  37.8105505  35.5057418  28.0129270  51.2098340  44.4164370  16.7165830
  51.7972323  45.0535621  16.3100530  51.5881158  43.5658024  16.4939725
  11.6860042  63.1975309  76.7485526  10.9694494  63.3152912  77.3721819
  11.2508598  63.0320641  75.9121903   1.8234528  44.3270907  25.0213680
   1.5295081  44.9703677  25.6663666   1.9900594  43.5348092  25.5320187
  26.9786021  60.9505389  36.2957990  27.4029961  60.7468924  37.1292554
  27.6099748  60.6739414  35.6316497  69.6362919  64.1813831  65.0850330
  69.5816428  63.5938611  64.3313333  70.5036815  64.5801652  65.0154633
  86.0247881   9.9001551  88.2182650  85.2231334   9.4336517  88.4548158
  86.7059685   9.4920665  88.7527636  56.1222163  37.3442612  66.2164623
  55.2370433  37.6553770  66.0269693  56.0667138  36.9900026  67.1039600
  31.1105532  43.7814747  81.9367242  30.2038678  43.5422842  82.1289256
  31.1519864  44.7219836  82.1098082  34.2711165  66.3866672  31.8032666
  34.5987831  65.9084114  32.5649345  34.2529657  65.7359610  31.1014946
  78.0047782  23.3992140   8.7897235  77.2374094  22.8279549   8.8219723
  78.0638606  23.6694435   7.8733626  20.6808831  65.9262566  20.7546442
  19.9941960  65.4806434  21.2507506  21.2180202  65.2179039  20.3997469
  73.7006276  55.4382676  26.0816299  73.0128980  54.7744199  26.1322856
  73.6591490  55.8908711  26.9240439  28.2102457   6.6768768  72.9178299
  27.9240965   7.5889951  72.9667250  27.5676008   6.2544682  72.3479085
  71.1393113  66.9785527   9.1261520  71.2088075  66.0658536   8.8461830
  71.9237998  67.3979071   8.7726672  73.6055469  40.1098532  55.7830683
  72.9615160  40.1756407  56.4881414  73.2854285  40.7099224  55.1095158
  37.5739784  66.2935732  17.4114109  37.6637387  65.6458705  16.7123713
  38.2730095  66.9255641  17.2435572  22.5574399  18.7625097  72.3956678
  22.6150001  17.8107975  72.4802998  21.9144090  18.9027040  71.7006221
  33.9049698  13.1820588   8.1095881  33.6404566  12.9102987   7.2307189
  33.5537888  12.5033516   8.6860085  60.2079791  25.1675918  87.1940127
  61.1442660  25.2545904  87.3729819  59.8918038  24.5598456  87.8625257
  30.0170251  30.7202422  19.5961336  30.3708414  30.5634971  20.4716202
  30.6135334  30.2547460  19.0098547  16.6362066  52.2669649  69.3007970
  15.7221946  52.2604613  69.5850003  16.9025315  51.3480127  69.3296040
  61.7690615  57.9371610  49.1071703  62.5363575  58.3646153  49.4876590
  61.0698910  58.5862149  49.1854097  85.7043357  71.0112435  47.9047014
  84.9574634  71.4795402  48.2776783  85.4102102  70.7468350  47.0330304
  33.9406100   1.9317330  47.5264918  33.4836126   2.5243603  46.9296852
  34.7550332   1.7155860  47.0723694   4.5157893  31.2826666  86.6195859
   3.9543181  30.8123471  86.0033218   5.4068482  31.0687341  86.3430380
   6.8962615  29.7430669  19.2909339   6.7758565  29.8272827  18.3450786
   7.2902472  30.5738169  19.5571322  22.8350696  43.0500586  16.5206770
  22.6587440  43.9261047  16.8637285  21.9988133  42.5904834  16.5961615
  11.9625426  26.7323497  71.0256204  11.9511653  27.2717228  71.8163030
  12.8530195  26.3834185  70.9865082  30.8163049  51.1654872  36.7687787
  30.5953558  51.9816969  37.2173488  31.6351294  51.3574518  36.3117143
  62.1483932  24.8645209  29.7840491  61.9935197  23.9504177  30.0220857
  62.6434014  25.2232582  30.5205994  65.9434801  29.0472848  25.4230978
  66.3686445  29.9038829  25.3817856  65.1124425  29.1699916  24.9642390
  61.1090188  26.0517250  70.5215234  61.5586326  25.6428138  71.2610306
  61.0431627  26.9757546  70.7624881  67.2974143   9.3167986  33.4019933
  66.7269212   9.8276354  32.8276978  66.7081766   8.7031277  33.8406717
  83.4207440  18.2261465  31.2797855  83.6709643  17.6627591  30.5475176
  83.7082539  17.7490246  32.0581972  26.4572520  69.6799291  64.6493899
  25.6887322  69.5807309  65.2113230  26.2914619  70.4835676  64.1565302
  63.3561790  40.0747215  28.2763190  63.6370322  40.9426542  27.9864118
  63.2052451  40.1734151  29.2163777  22.5700877   0.9639646  62.3715328
  21.6683023   0.7056620  62.1810210  22.5382268   1.3029503  63.2661308
   7.3788308   8.3424647  79.2066036   6.8942160   8.9397914  78.6368833
   8.0848547   8.0054289  78.6550882  41.7837782  69.2058584   0.7233034
  41.5922591  69.8302338   0.0235123  42.7360518  69.2345952   0.8159376
  15.8697526  48.8828544   5.6028495  15.9714213  49.7101999   6.0733756
  16.1326006  49.0842194   4.7047432  28.4529563  13.7922973  69.3717812
  27.9908004  14.6209721  69.2455200  27.8213181  13.1231864  69.1080469
   6.3008488   0.1536824  35.0075249   7.1644093   0.5610466  35.0749756
   5.7539941   0.8192601  34.5901664  33.0073558  63.4490033  71.7195721
  32.4682001  64.0113626  71.1634291  33.6946037  64.0273589  72.0503695
  63.9545049  33.7983871   5.0593086  63.1390978  33.3025282   4.9853686
  64.3489631  33.4904062   5.8752635   0.0153228  33.1414805  19.6912758
  -0.2269339  32.3672711  19.1831977   0.5490286  32.7998102  20.4086678
  84.0315632  50.7366590  88.3578144  84.9681632  50.7628806  88.5535814
  83.6120522  50.6169116  89.2098138  13.9470728  55.8401609  19.1428497
  13.4559055  55.2761073  18.5454973  14.8524693  55.7811931  18.8378713
   8.0877290   8.9780041  26.4281406   7.8339845   8.2258481  26.9630301
   7.6815299   9.7283557  26.8619686  80.8934556  20.5707156  79.4320211
  81.2204736  21.4702728  79.4413904  81.3403928  20.1610952  78.6912849
  33.1922599   7.3207117  85.2122251  34.0825864   7.1641205  84.8975352
  32.8823986   8.0637080  84.6943696  55.4160315  37.4872636  16.2168858
  55.6161578  37.8568507  15.3568935  55.8985697  36.6609316  16.2406389
  83.7830499  25.1586726  19.5903131  83.4158508  25.1225515  20.4735412
  84.3520929  24.3909074  19.5359205  47.1349512  28.6189691  56.3118047
  47.4968396  29.5037883  56.2631869  46.6350736  28.6091630  57.1280510
  79.5128151  13.7314004   4.9130294  80.1141653  14.0203363   5.5994155
  78.9009713  14.4600420   4.8083377  36.6396591   6.1279269  16.8084352
  35.7088411   5.9092811  16.8531995  37.0874366   5.2850259  16.8808571
   2.5743318  50.0883091  30.0028785   2.9097539  49.9607850  30.8902687
   1.7841483  50.6159004  30.1190223  78.1148594  34.9329245  25.2274954
  77.7542394  35.4029593  24.4756627  77.8006053  34.0349817  25.1217838
  30.7811240  67.5237197  83.0329886  30.4761766  68.3973774  83.2778581
  30.6145325  67.4668661  82.0921131  48.6232041  48.3825826  88.5922875
  48.2808528  48.2167523  89.4706540  47.9071719  48.8240826  88.1355520
   5.2955929  47.5354592  20.3404690   4.9921677  46.7258584  19.9297239
   4.6897783  47.6765768  21.0680034  37.3573149  23.1740303   4.6835445
  37.0973664  23.5023000   3.8227904  37.7524184  22.3206339   4.5051078
   9.0755549  48.2252077  38.6882199   8.2841463  48.0051269  38.1968253
   9.6881105  48.5440941  38.0254085  61.8729395  38.6111839  47.1460544
  61.9607550  39.0715323  46.3114290  62.6582223  38.0668445  47.2031277
  79.7900791  34.2591362  84.8363111  80.0016184  35.1926343  84.8443367
  80.6296259  33.8220672  84.9790121  51.0645226  12.5911201  46.9028822
  50.1405565  12.4415320  47.1032367  51.2707488  13.4223961  47.3302964
  11.8357746   7.6548787   0.1647642  11.0135299   7.2058717   0.3610758
  11.5793335   8.5616760  -0.0031302  78.3628468  45.8642123  36.1807113
  77.8648250  45.1569127  35.7709144  78.5857703  45.5283713  37.0488978
  20.7479633  55.7847007   3.8457777  20.8364316  56.7024912   4.1028103
  21.4876330  55.3459186   4.2660050  55.5802049  17.9261573  87.9821933
  54.7709562  17.4905999  87.7145403  55.5635780  18.7657309  87.5227680
  65.0064109  60.5078247  72.6081695  64.3534258  61.0991625  72.9825516
  64.5010105  59.7528854  72.3067247  62.6306599  68.8327665  26.6020160
  62.6391594  69.6000120  26.0297451  62.6977089  68.0877509  26.0047824
  81.7715188  11.8756669  62.9619272  80.9679746  12.3892064  62.8793102
  81.4787167  11.0227000  63.2827796  74.4014720   7.6583455  82.6919236
  74.1203604   7.3603915  83.5570429  74.5874804   6.8525912  82.2098523
  35.8150148  29.2452250   1.7654324  36.6308191  29.7294346   1.8928545
  35.8692848  28.9164519   0.8681059  10.3505145  60.4472940  39.9159359
  11.0572369  60.6730703  39.3111215   9.5545013  60.5091559  39.3879512
  85.7030656  53.7765795  87.1302522  85.9968989  53.3253009  87.9216065
  85.6689559  54.7000413  87.3798250  59.5487334   6.0634846  36.1223363
  60.4491145   5.8525468  35.8752512  59.2020643   6.5481059  35.3732071
  52.9290597   5.6632070  49.4526466  52.7092893   6.0246607  50.3112990
  53.1303301   6.4290004  48.9147966  81.8940183  55.9352356   5.9115485
  82.3031286  55.0995332   5.6869109  82.5961651  56.5788229   5.8165897
  14.5148821  49.8529260  48.5696627  14.6060245  50.7318509  48.9376517
  15.3275257  49.7110906  48.0841476  79.3814633  34.1287644  48.7071190
  80.1526296  34.6849692  48.5967984  79.3779093  33.9061536  49.6380667
  56.9420858  24.4496835  37.4815578  56.9993882  23.5966824  37.0510494
  56.4709339  25.0017653  36.8574959  36.0748311   5.7646556  84.7932214
  35.6312068   6.1842508  84.0560856  35.4617767   5.0923198  85.0904767
  29.3839002  19.0102966  77.6200421  29.1078540  18.6430788  76.7802912
  28.5703309  19.1211049  78.1120363   2.8090845  39.3800467  31.8475187
   1.9284055  39.6788835  31.6209508   3.3920650  39.9553861  31.3521904
  55.3819396  22.8738537  25.1813994  55.7512449  22.6154775  26.0258443
  54.7318523  23.5420018  25.3986471  27.0126324  63.1243440  78.2166471
  27.2635076  63.4858793  77.3665967  26.0786289  63.3191627  78.2935557
  82.4947825  69.2507166  69.3144828  82.6348051  69.6973958  70.1494099
  83.0574868  69.7168362  68.6961559  74.3879285  29.8136238  54.7160825
  73.8904367  28.9986278  54.7832776  73.8017213  30.4148806  54.2566446
  64.4850752  41.0270926  83.8952681  65.2347437  41.1069930  83.3054844
  63.9401003  41.7879247  83.6943485  14.0875155  23.3953390  10.6642291
  13.6773886  22.8027519  11.2942039  14.9182680  22.9736720  10.4445042
  24.8460617  15.6972228  55.5866519  24.4108028  14.8693440  55.7901175
  24.1354788  16.3370863  55.5433092  54.2087786  14.4094880  26.0409758
  54.1568506  15.3077895  25.7144951  53.9436744  13.8685855  25.2970833
   0.3750253  53.3422390  26.3821891   1.0803793  53.5999609  26.9757269
   0.7810857  53.3375658  25.5153991  47.5610249  55.0131188  43.5208035
  48.3380671  55.5581557  43.3968191  46.8503835  55.6381951  43.6639826
  21.4465116  69.9825206  64.7792483  21.1037960  70.0749488  65.6681999
  20.8362975  70.4795404  64.2344164  46.4373594  20.8485136  71.7188661
  46.4982671  19.9423397  71.4165897  45.8845457  20.8041120  72.4990312
   0.7322263  17.5310156  20.8238536   0.2804050  16.6946041  20.9356797
   0.5894153  17.9927262  21.6500861  53.9588746   2.7111392  22.6579493
  53.6749203   1.8592482  22.3264622  53.1689914   3.2514229  22.6377025
  50.7183843  50.6869900  66.7675126  51.5421165  51.1146629  66.5334336
  50.5446670  50.0880577  66.0413348   8.6692525  29.9719637   7.0993452
   8.0437701  30.2891338   7.7508103   8.1407508  29.4540395   6.4921614
  85.0023519  44.0189399  66.8835473  85.7401877  44.1844805  66.2966688
  85.3904768  44.0057453  67.7584284  16.5685934  64.0760269  45.3002057
  17.4800626  63.8235359  45.4475283  16.6175110  64.9811388  44.9926161
  14.5543945  57.9955908  63.5260619  15.3632953  57.4971224  63.6419952
  13.8997069  57.3382867  63.2903344  73.3583656  70.1647090  23.6926536
  72.6479869  70.1404198  24.3337495  73.1809630  69.4259026  23.1104807
  65.9444928  49.9148340  81.7348996  66.0261849  50.8613287  81.6178264
  65.0137466  49.7744545  81.9087872  72.1970551  50.4682389   6.8573783
  71.8088733  49.6291944   6.6092836  72.4148297  50.3667553   7.7839349
  74.2646382  70.1467577  75.5121433  74.9042776  69.4368002  75.4568831
  73.4478644  69.7581852  75.1988959  51.8367397  33.6299169  15.7429474
  52.7155684  33.4000190  16.0446739  51.7896591  34.5805422  15.8445686
  52.8972115  57.8300697  45.8400507  53.7993267  58.1395800  45.7586660
  52.9461715  56.8947331  45.6426165  38.2347424  71.2237656  71.1238534
  37.4247460  70.8453459  71.4658127  37.9592919  71.7264812  70.3572793
  81.4136654  14.3286000  15.4234070  82.1860402  14.2763411  15.9863794
  81.2513518  13.4242776  15.1549167  28.6034795  53.8321645  45.9994844
  28.5553903  53.1916637  46.7091871  28.5611571  54.6810708  46.4397100
  84.3816162  41.3810825  80.9214511  84.8495928  40.6740307  80.4772580
  84.2914945  42.0635288  80.2563368  60.0695055  24.7384957  75.4266193
  60.3205226  25.0671941  76.2898571  60.8566741  24.3047335  75.0973051
  80.7272593  15.1595569  48.2869781  79.8066511  14.9490769  48.1307396
  80.7479212  15.4924031  49.1842063  35.7503386  41.5492182  64.1835946
  35.5336353  40.9958129  64.9339372  35.0237310  41.4211836  63.5737745
   7.3972483  44.7939112  12.3624976   7.8933815  45.4612554  12.8365602
   6.9118589  45.2831294  11.6981976  49.6930648   1.0807984  23.2481142
  49.9834489   0.3395840  23.7796310  50.3742297   1.7426014  23.3675417
  22.7295485  28.9650661  18.3007330  22.6682374  28.8809509  17.3492093
  21.8205208  29.0210178  18.5953003  37.4658986   3.6112816  18.2862867
  36.8093610   4.0267279  18.8453884  37.4111183   2.6806466  18.5034259
  82.3407001  25.8253311  68.1773888  82.1636512  26.2769260  69.0025843
  81.9460141  24.9603649  68.2882414  85.4206877   6.0296492  31.5947375
  86.3466040   5.9614754  31.3617929  85.0057513   5.2935536  31.1450455
  26.4457037  38.6283408  24.4446536  26.9868278  38.9782246  25.1524657
  27.0731304  38.2550198  23.8256230  85.1578108  25.7706129  68.4591479
  85.5242028  26.6350983  68.2729926  84.2213621  25.8647385  68.2846886
  84.2915545  37.7121493  30.8490610  84.5899690  36.8188740  31.0200578
  84.2399288  38.1172732  31.7147637  42.7049528  47.7518032  44.2450314
  43.3989692  47.1845102  43.9092462  42.4314748  47.3370714  45.0632240
   4.4805415  30.4856157  69.5442667   4.0906609  29.7996904  70.0862367
   4.7458333  30.0353984  68.7422963   7.7340281  70.3627026  82.4189889
   7.6682850  69.8709120  83.2375557   6.8287356  70.5804273  82.1970127
  67.7116467  22.9214619  38.5607824  67.6141616  21.9733068  38.6487050
  68.4660485  23.0320320  37.9820907  78.6886134   1.0949425  64.8047183
  79.4901752   0.7073873  64.4532477  78.1587624   1.2913091  64.0321059
  15.5762562  58.6899990  68.9001749  14.7519199  58.3513114  68.5509011
  15.9044835  59.2735203  68.2160685  60.9697633  71.2353226  28.6671110
  60.2573320  71.3887573  28.0465215  61.2063114  70.3168561  28.5378979
  59.0554685  50.8236168  64.1668775  59.3380424  49.9223223  64.0117907
  59.4268726  51.0475991  65.0201786   0.3214435  56.5045482  37.7468520
   0.0779028  56.3860353  38.6649340   0.7794328  57.3448382  37.7270974
   8.7905213  69.9975678  47.9818716   8.9674980  69.9397450  48.9207899
   9.4350883  70.6251200  47.6548494  59.9394093  50.2218118   3.2087181
  59.2855932  49.6679341   3.6353044  60.7730162  49.9442986   3.5886100
  18.1756157  39.5689269  20.6489312  18.7500166  38.8812482  20.9856704
  18.2418012  40.2733093  21.2936767  70.3559588  58.5920179  61.0952071
  70.3255015  57.9559120  61.8098212  70.3889876  59.4426187  61.5329504
  36.1753745  66.5484221  64.5601762  35.9309911  66.5671481  63.6348881
  36.7353822  65.7767191  64.6444236  61.5396418  51.1380963  12.0707449
  61.7294932  50.6051708  11.2986188  61.4252037  50.5031087  12.7777998
  76.4712976  68.2323744  61.0172011  75.9112889  68.9533974  61.3048605
  77.3601122  68.5234481  61.2209574  70.4485106  31.8669284  27.0854674
  71.0139473  32.4203703  27.6241837  69.7933160  31.5282109  27.6955676
  77.5936341  29.6237222  42.0348329  76.7817242  30.0351619  42.3310618
  78.1231058  30.3493787  41.7042060  34.7515817  37.6003650  12.5614139
  35.3328347  38.1514451  13.0855202  34.6918365  36.7806825  13.0521104
  72.9159762  47.3800188   8.8243150  73.3200394  48.2205713   9.0398057
  73.4177673  46.7374675   9.3258779  31.7496381  63.8785659  85.4742023
  31.9869740  64.5220270  84.8064739  31.9993397  63.0361324  85.0944830
  54.1116708  45.4971780  82.6996691  54.1540107  45.2138995  83.6130105
  53.1774594  45.4946017  82.4911644  11.4579369  65.8140628  26.8988624
  11.6842457  64.9375245  26.5879015  11.2293670  65.6898086  27.8200293
  60.6531065  28.5127461  42.9978248  60.0530972  27.7770645  43.1202711
  61.4225866  28.2835415  43.5189749  74.5505325  64.1881549  32.4791519
  74.1939459  64.1055975  31.5946961  73.8553426  63.8597142  33.0493006
  67.2106662  51.4213341  15.7251804  66.4842320  51.6232653  15.1354779
  66.7920313  51.2326641  16.5650497  18.3729736  68.1426535   7.8571241
  17.7704101  67.4637135   7.5534967  18.5581438  67.9091914   8.7667610
  86.7896272  20.4051571  14.1232698  86.0096176  19.9813366  14.4813106
  86.4682760  20.9017545  13.3707033  45.2298510  25.3973328  24.5069969
  45.1071846  25.1731673  25.4294581  46.0715637  25.8523870  24.4809759
  64.5812977  54.1732254  46.2994769  63.8915668  53.7283554  45.8069387
  65.1050318  53.4639641  46.6721468  27.5227007  41.7942560  41.9997704
  26.8672600  41.1072935  41.8784779  27.4104338  42.3688148  41.2424659
  48.5395009  39.2554235  17.1879995  48.2389185  39.9480337  16.5996347
  47.7372776  38.9055488  17.5756299  46.2221162  45.8354526   1.4798482
  45.3011926  45.5890661   1.3936787  46.6978688  45.1535925   1.0055507
  40.2515981  56.5119899  46.5103073  40.1508324  57.4206917  46.2268659
  41.1455347  56.2802738  46.2584801  41.8242118  12.2082355  63.5364871
  42.1731798  13.0972049  63.6011915  41.4332557  12.1673365  62.6637257
  52.2225854  41.0307877  34.1279484  53.0572368  40.7697723  33.7387701
  51.5625434  40.5677486  33.6120306  33.2611048  54.4330896  15.0121973
  33.7676843  55.1980524  14.7393584  32.5966875  54.3303687  14.3308532
  64.3550236   9.5724640  63.9538900  64.1687453  10.5092466  63.8908771
  64.9665629   9.4011623  63.2377145  26.3984951  71.6810675  41.0278082
  26.2206208  71.9346171  40.1221012  25.7308344  71.0251663  41.2284436
  59.1008380  28.5736424  66.2611077  59.8049414  27.9751543  66.5106717
  58.4844738  28.5365635  66.9925119  52.6744883  46.5758749   7.8276762
  52.9328392  47.4828897   7.6639360  51.7766428  46.5198088   7.5006258
   5.1576646  66.7474698  34.8656960   5.5371329  67.4732996  35.3610814
   4.6149557  67.1697857  34.1998521  41.9591440  61.4809975  12.8454610
  41.2214034  62.0789496  12.7253618  41.5552087  60.6482653  13.0896437
  61.6971970  31.2104161  87.7650107  62.3059630  31.9351019  87.6219503
  61.2082341  31.4596246  88.5492569  48.0984631  63.2028079  40.9764983
  48.4263785  64.0930324  40.8492050  48.7451938  62.6452094  40.5439995
  71.4979254   7.4431674  16.5936054  70.9746321   8.1779292  16.2734165
  71.3222483   6.7356937  15.9732424  36.8682008  54.7889906  62.4199406
  36.3129946  54.4209650  61.7325287  36.3522883  55.5076906  62.7853670
  50.0736238  56.9534986  37.2832632  49.1779003  56.7717656  37.5676651
  50.5254707  56.1134786  37.3634662  56.6006244  20.7060749  75.5831172
  57.2361386  21.4147782  75.4826523  55.7860297  21.1472113  75.8240861
  83.1336612   9.8276388  59.8631417  83.4304134   8.9761268  60.1842294
  82.9874734   9.6928643  58.9268208  17.5386677   5.3480863  39.6463250
  18.4309499   5.3618070  39.9925563  17.1249430   4.6017471  40.0799624
  74.0605292   7.4039679   6.6618836  74.0674222   8.3610951   6.6522967
  73.3520365   7.1755677   7.2636338  36.6647271  32.9503350  83.5966160
  35.9587299  33.2216181  84.1833061  36.2337593  32.4025818  82.9405176
  21.6591661  55.9503784  46.1029291  22.6129823  55.8743079  46.1290027
  21.4578451  56.1247616  45.1835314  62.9275816  29.4853283  18.4912130
  61.9914600  29.3609797  18.3348622  63.3037982  28.6097600  18.4013624
  73.7795854  62.4901538  21.4650865  73.5542974  62.7089956  22.3692907
  74.2195570  63.2722206  21.1318772  80.6661841  43.5740904  16.1584740
  81.4810175  43.8857327  15.7645736  80.5608398  44.1086302  16.9454947
   3.3638746  35.4634181  51.4890532   4.1513963  35.9979102  51.3872709
   3.1018279  35.5941248  52.4003595   7.5451088  29.1784080  58.2473221
   6.8247854  29.2887814  58.8679538   7.2420745  28.4968502  57.6474213
  57.9721818  57.7547563   9.9729815  57.2870569  57.1712436   9.6468699
  57.6128022  58.1170117  10.7828266  71.3624727  63.9936204  82.2994117
  71.5145779  64.7326241  81.7103706  70.9312714  64.3797893  83.0617573
   7.8169835  34.0803170  15.4199350   7.2989311  33.9479750  16.2138740
   8.4985737  34.7003287  15.6792651   5.5466394  36.0736281  16.6359299
   6.4798585  36.0774479  16.4230465   5.1898664  35.3396552  16.1357013
  34.4412068  64.8005604  55.7983361  33.5737447  64.4055969  55.7103286
  34.7829518  64.8295685  54.9046914  58.2080569  51.7266847  87.6295908
  57.5920499  51.0056339  87.7594093  59.0642994  51.3495096  87.8316292
  58.3044008  24.9200837  81.1337754  57.9109870  25.7907592  81.0756238
  57.5608591  24.3183732  81.0974143  20.8941315  67.0609032  86.1271796
  21.5465341  67.3816872  85.5045237  20.4783789  67.8529558  86.4678177
  63.9257155  29.0216375  83.2681853  63.5920142  29.6954392  82.6758454
  64.1296365  28.2807033  82.6975150  65.0539688  21.9733962  87.5430822
  64.5752610  22.6806074  87.1107362  65.9716419  22.2414879  87.4958071
  23.3227713  45.5123211  51.6325724  24.2628745  45.6670821  51.7246969
  23.2060689  44.5942763  51.8771251   4.2854722  26.6060040  16.0881969
   5.1129304  26.3098000  16.4674172   4.0204012  25.8940280  15.5059087
   0.2061901  40.3731828  51.3684959   0.9885450  39.8868439  51.6285481
  -0.4551011  39.6984765  51.2145570  24.3220787  44.1964838  32.1374150
  24.8318840  45.0057212  32.0991352  23.6957525  44.3413019  32.8466223
  64.6354463  56.5862633  31.2523150  63.8096623  56.4397116  31.7136557
  65.1557758  55.8047034  31.4384685  76.8762510  37.7769554   0.1530290
  77.2183170  38.4496872   0.7418028  77.2113938  36.9540933   0.5091316
  53.5800274   8.2702025  12.7890822  54.4033724   8.7505320  12.8763655
  53.8097735   7.4911168  12.2826495  49.8072263  12.5174554  78.0564143
  50.1231552  13.3184247  78.4745878  49.4429691  11.9999628  78.7745716
  62.3245154  36.5835289  21.9182386  61.4533514  36.2099954  21.7849052
  62.7121231  36.6056109  21.0433074  62.9217083  43.2290258  10.9496830
  63.1387077  44.0471376  10.5026527  63.7609323  42.7788669  11.0460780
  43.8016767  27.7409900   3.5010340  43.1602469  27.7198763   4.2112127
  44.5298073  27.2077773   3.8200042  56.3668068  49.4427108  44.4707067
  55.5033017  49.0296895  44.4727550  56.1876593  50.3730147  44.6073548
  14.3445370   4.5260766  58.6053261  14.4927185   3.9016228  59.3154892
  13.6939404   5.1354453  58.9540747  65.1375887  17.7585413  79.8986391
  65.1196123  18.3667066  79.1596914  64.3820130  17.1880303  79.7577335
  39.5163124  70.2216555   4.5432245  40.3226198  69.8372515   4.1992278
  39.3114411  69.6962158   5.3166407   1.7405196   0.5261383  53.9988850
   1.5752265   1.2773674  54.5685910   1.6728379   0.8789184  53.1116437
  52.2402653   6.0793347  18.9494104  52.0241880   6.0085892  19.8792155
  52.4943693   6.9946315  18.8315347  57.2838548  60.4742827   3.9849947
  56.4343895  60.8899545   4.1328371  57.4603198  59.9953537   4.7947594
  47.4819177  51.7882771  57.9826740  47.4650114  52.0552860  57.0636243
  47.9142802  50.9343152  57.9760754  20.0071455  67.7980311  59.0764152
  19.8044918  68.3920366  59.7991328  19.3785896  67.0823676  59.1711524
  72.5064590  42.4184829  54.6597633  71.6946857  42.3794413  55.1654625
  72.2185490  42.4999785  53.7505339  77.4121736  66.5688273  77.8882912
  76.4903050  66.8261089  77.9023011  77.6686806  66.6468685  76.9694084
  53.8166350  66.2608882  45.2445002  54.2038775  66.5994828  46.0517355
  54.5664246  65.9932756  44.7130580  71.7681698  42.4002777  58.2474588
  71.4897244  42.9379413  57.5060967  71.6804149  42.9759440  59.0071556
  33.9731733   0.0686117   1.9447165  33.0273597  -0.0738799   1.9077765
  34.1250881   0.4443894   2.8118640  22.2999605  39.5272717  58.7725570
  21.8143202  39.4291343  59.5915530  23.2054141  39.6725271  59.0469408
  53.8258476  57.9115320  22.3448346  53.5943754  58.8125231  22.1192964
  54.7646231  57.8537626  22.1670842  69.9362833  18.5318354  74.8527032
  70.3567175  17.6751485  74.7781751  69.1480599  18.3675810  75.3703481
  36.0900019  38.6188211  77.0777258  35.4301994  37.9724308  76.8265843
  36.7648193  38.5469555  76.4026785  16.5084371  36.0823520  11.8550294
  16.5179803  35.1290193  11.7696047  15.6846758  36.3510379  11.4482653
  77.8240185  44.3096126  43.5985094  76.9507701  44.0119550  43.8535959
  77.9068503  44.0503750  42.6808131  65.1321103  31.4025341  62.9049135
  64.7906001  30.5706467  63.2328860  64.4171653  32.0246344  63.0393631
  28.7852351   7.1404928  16.2144528  29.2875250   7.8522802  16.6110576
  28.1945341   6.8484077  16.9087082  80.7834723  71.6930048  76.3951750
  80.1906698  70.9773321  76.6245865  81.6581062  71.3094136  76.4592467
  73.7239317  11.6330443  24.6132844  73.7748442  10.6835718  24.5030949
  73.2033660  11.7544401  25.4073287  24.6742242  46.6071285  83.5057787
  25.0584735  46.6888469  84.3786512  23.9780046  45.9586073  83.6103270
   1.8577904  36.0911332  36.4326739   2.2684998  36.7029746  35.8217733
   1.8220454  35.2628028  35.9543196  25.3347957  66.2754535  36.4649448
  24.6820409  66.8983498  36.7845433  25.3250736  66.3850770  35.5140926
  80.9468663  51.1824852  67.4896530  80.0956081  51.4953748  67.7957437
  80.7363569  50.5387749  66.8132252  85.8418266  42.9422995  15.1014530
  85.2054925  42.3632983  15.5210581  85.5756893  43.8227572  15.3664003
  12.2017390  30.5797569  61.6862659  13.0076965  30.4358449  61.1903288
  12.4983696  30.7598195  62.5783531  29.8244174  21.6128937  76.8035188
  29.4376554  20.8489173  77.2312888  29.5385911  22.3555487  77.3354951
  24.3576647  44.9215184  41.9140185  24.1482422  45.2509134  41.0400202
  25.1860545  45.3457365  42.1377174  61.8200776  18.2366558  65.2456576
  61.5935239  17.5947659  65.9186232  61.3366267  17.9515359  64.4702779
  59.2863307  63.5935565  28.9327557  60.1277658  64.0186533  29.0986216
  59.2297611  62.9069332  29.5972707  66.5445852  61.3235959  30.0046470
  65.8753005  60.7367788  29.6526021  66.6736687  61.0266604  30.9054237
  66.5196905   7.3412496  55.2446303  65.9712781   7.5024264  54.4768427
  66.0194296   6.7162365  55.7693487  70.2441330  45.3384924  19.4460768
  70.8237477  46.0779202  19.2629783  69.3699237  45.7254541  19.4935180
  48.1000552  57.9917582  30.2366067  48.7952054  58.6209478  30.4292683
  47.2953289  58.4334025  30.5078959  46.5094358  37.1829199  14.6266418
  46.5564266  36.5937012  15.3795329  47.3975355  37.1865861  14.2695743
  13.6185455   3.3655589  25.8973087  12.7450182   3.6673643  26.1464983
  14.0306923   3.1159348  26.7243847   3.1192365   8.2949858  33.2555813
   3.0843908   8.5032755  32.3219684   3.4322252   9.0995854  33.6689691
  15.5192326  42.7533206  68.5290029  16.4511804  42.5513627  68.6121791
  15.3892233  42.9028943  67.5925430  41.8061012  45.4095622  60.2187318
  42.2121514  44.6864038  60.6966409  41.2743021  44.9836651  59.5463977
  24.4543805  43.0179099  10.7072913  24.2132440  42.0951887  10.6256181
  24.6459119  43.2956071   9.8115057  33.3501609  20.3558041  84.0766811
  33.6105378  20.0111406  83.2224898  34.1338732  20.2683660  84.6192504
  22.4113337  48.8213750  25.1414321  22.5701221  48.6787168  26.0745274
  21.4772458  48.6458424  25.0278537  56.4131222  52.2471996  21.7165496
  57.0122448  51.5928394  22.0758498  56.9383585  53.0451167  21.6558305
  66.4685946  62.4348031  82.0560153  66.3714799  61.7599131  82.7278218
  67.4130358  62.5783096  81.9954468  12.3870155   3.6086613  63.1236390
  11.4724238   3.8224146  62.9390766  12.5446445   2.7958397  62.6433203
  27.1382016  65.4891011  18.1521980  27.9025850  65.1509432  17.6857227
  27.2659844  65.2066610  19.0578088  47.9590185  52.6942916  79.1046480
  48.7707772  52.4585159  79.5537463  47.4684794  53.2048030  79.7488385
  38.5372077  19.6394041  15.8684221  38.6305382  19.3673805  14.9554465
  38.5341048  20.5959872  15.8342020  58.8477909  69.1237898  85.1624119
  59.7882624  69.1030661  85.3393744  58.7518652  69.7567544  84.4508039
  12.0926444  36.2958853  41.0050463  11.4756754  35.8757704  41.6042829
  12.9398917  35.9069066  41.2220707  32.7530718  39.3704675  87.9487818
  33.5051451  39.8587530  88.2837369  33.0464713  38.4594694  87.9335816
  15.1593393   0.6913168  58.1853906  14.4390707   1.1535024  58.6141440
  14.8428194  -0.2066558  58.0869423  20.5807953   9.8045615  23.5525987
  21.3955066  10.0817049  23.9717274  20.2356709   9.1218243  24.1279168
  69.0209542   9.9948589  59.3956692  69.4706463   9.5759081  58.6618511
  68.1612292  10.2302759  59.0468375   1.8268446  30.8056055  80.1169540
   2.1543468  30.9681012  81.0015835   2.5249147  30.3083821  79.6906925
  44.8156698  49.4483570  44.9437429  44.0368899  49.0201622  44.5882392
  45.5259063  49.1734270  44.3639071  18.3660447  56.8176273  84.3648357
  18.3036167  57.2922397  85.1937372  17.5598336  56.3034120  84.3219623
  50.1799390  13.5570625  58.8697160  50.2753243  13.2100411  59.7566826
  49.5147987  14.2406833  58.9502321  50.2235494  29.5770183  74.7088457
  50.8542114  30.1418636  75.1554407  50.6627672  29.3223089  73.8974008
  44.4632711  49.6129373  10.1063809  44.7898114  49.1574393   9.3304139
  45.2501575  49.8252299  10.6083506  36.8124644  20.4886314   3.2367810
  37.3394436  19.7647776   2.8983134  36.6852654  21.0650796   2.4832827
  55.0059884  68.5391949   6.7617783  54.3834233  68.4233389   7.4795680
  54.4585727  68.6217544   5.9809123  48.6797788  46.0348152  79.7229604
  49.4932847  46.4987068  79.5248579  48.2036817  46.6249841  80.3071385
  46.5711940  33.8998633  23.0489713  46.6673290  33.6857400  23.9769481
  45.8572570  33.3386456  22.7463817  21.6379893  67.5153550  54.9369841
  22.2889919  66.8150714  54.9820411  21.3726891  67.5369491  54.0175379
  54.4055514   9.7005187  33.6453441  54.1126663   8.8878352  33.2330387
  53.8609285  10.3802750  33.2484194  21.8601510  18.8683952   2.6571126
  21.2732920  19.5040791   2.2475588  22.1836723  19.3116898   3.4413674
  65.8826918  46.7613852  60.4398733  66.1429030  45.9199550  60.0650169
  64.9783215  46.8829592  60.1507954  73.4577608  33.8698576  13.9574895
  72.7563056  33.2193028  13.9886477  74.2483814  33.3806935  14.1852381
  51.8657372  49.7673153  85.1984426  52.5965869  50.1262527  85.7016866
  51.2704329  49.4139301  85.8594748  78.0145929  36.5679193  53.9661634
  78.8191772  36.0614156  53.8551234  77.3124546  35.9217480  53.8906897
  23.6097196  24.5662838  59.8420974  23.7176835  25.5157592  59.8975240
  23.1933637  24.4217692  58.9923945  82.2895919  42.3222457  75.6405788
  82.5818793  43.2217651  75.7877683  82.4610209  41.8759774  76.4698487
  48.0712631  35.0822037  21.1060484  47.5817922  34.8550797  21.8966588
  48.7755302  34.4351702  21.0662068  19.5262939  61.0151840  38.1059871
  19.8236654  61.4608418  37.3127714  20.1411029  61.2965029  38.7835572
  11.8886763  15.8585892  83.1777608  11.6223092  15.4982087  82.3319439
  11.1242915  16.3486443  83.4807357   9.3951126  56.3320972  46.8358232
   8.7001909  56.3548535  46.1779496   9.4055595  55.4252146  47.1419057
   6.2584469  65.3640444  79.7140666   6.5147680  64.9019744  78.9159295
   5.4001812  65.0024083  79.9350440  77.5645244  58.2920947  20.6310282
  77.1252580  58.1428219  19.7937741  77.6930772  59.2398855  20.6684270
  13.1623265  43.3271153   0.2002353  13.2051403  44.2508438   0.4474689
  14.0270577  42.9801526   0.4195266  38.0852250   0.9008873  86.8624631
  38.7635369   0.5228767  87.4221351  37.2863756   0.8511691  87.3874389
  59.4712791  65.7194198  35.9740242  58.6667446  66.1503107  35.6854258
  60.0743068  66.4387846  36.1613843   8.0285672  46.3512214  70.1698090
   8.3963007  46.9023541  70.8606466   7.3307514  45.8589133  70.6021489
  52.5335213  49.9484356  37.0918054  52.6697687  50.0780407  36.1532581
  51.8095113  49.3245519  37.1448209  76.3244331  16.0514807  31.7179518
  77.0413405  16.5724508  32.0797055  76.3809890  15.2140563  32.1781188
  66.6951809  55.7547575  22.5145680  66.9242484  55.1076744  21.8474523
  66.4010890  55.2342596  23.2621132  77.3858631  18.0667095  69.2597665
  77.3464272  18.1976239  70.2071513  78.2862376  18.2905859  69.0243159
  85.2081725  24.9620657  72.7988699  85.8417289  25.3270220  73.4166440
  84.3658322  25.3185552  73.0810222  49.3922229  61.5453886  30.3256221
  49.5045903  62.4941962  30.2675737  48.9795430  61.4047667  31.1777680
  80.1945027   2.0547552  50.4728261  81.0623184   2.3604977  50.2089149
  79.7673465   1.8090161  49.6522277  82.9654237  37.5506120  37.9283572
  83.1764734  36.9641289  37.2019087  83.3301720  37.1171116  38.6998933
  17.8528019  37.8890863  69.9176576  18.7351615  37.7700614  69.5662226
  17.9713884  37.8898812  70.8674831  67.1166025  61.7751684  65.8379089
  67.0626801  60.8266964  65.7207547  67.3796908  62.1079158  64.9798323
  37.8057931  32.6255042  65.2513655  37.6082294  31.9256457  65.8737791
  38.6955751  32.8995795  65.4736324  53.9969415  39.9572416  32.1555740
  54.1723734  39.3034113  32.8323024  54.8298024  40.4155642  32.0437036
  80.8724498   4.7740135  41.9065547  80.1736665   5.2761376  41.4872635
  81.3460032   4.3694920  41.1796838  12.9129688  68.7520556  12.4670273
  13.2208762  69.5287122  12.9341776  13.7099203  68.3458801  12.1262612
  84.2546731  34.5003099  70.3765133  84.6052734  34.2961748  69.5095415
  84.2470444  35.4567969  70.4126547  58.9366266  58.1388911  60.8585731
  59.6989072  58.7128974  60.7832287  58.8545325  57.7351022  59.9946015
  63.4117948  25.9773617  80.6942266  62.4878213  25.7613851  80.8201590
  63.7931416  25.1858792  80.3142770  18.1923270  14.1923369   7.2485831
  17.5642434  14.6200027   7.8306869  18.9050898  13.9177997   7.8254976
  70.1286276   5.7648047  19.0074411  70.2738129   4.8782970  19.3379817
  70.9761950   6.0287156  18.6493733  22.1092144  31.3310340  87.8560478
  21.5610447  30.7839046  88.4185344  21.5110958  31.9932541  87.5097089
  60.3839822  13.9531231   9.7759737  61.0753002  13.5314982   9.2655388
  60.8147393  14.2200797  10.5880170  15.2758398  41.6107314  10.4754659
  16.0405866  42.1783057  10.3792703  15.0612656  41.6538508  11.4073085
  81.6861033  50.0026363  26.0255467  81.6701401  49.6633612  25.1306336
  81.5132874  49.2379319  26.5747223  22.3435113  66.9085723  13.7651269
  22.6658665  67.2705997  14.5905087  21.4412192  67.2218743  13.7023365
  82.4699829  22.8408901  78.8915545  82.3876124  23.1729005  79.7855433
  83.3768438  23.0281394  78.6491233  52.6657072  34.6321877  23.4705621
  51.7591840  34.7003473  23.1708926  52.9714797  35.5380629  23.5166625
  17.9146625  46.8269829  88.8023497  17.2583117  47.5225484  88.7620495
  18.4608740  47.0563578  89.5541954  36.9415792  69.1112542  84.5512490
  36.1827106  68.6801436  84.9443062  36.5914343  69.5552124  83.7788945
  77.6770652   4.1093542  62.1880270  77.3493755   4.7389173  61.5457642
  78.6280434   4.2156210  62.1639504  12.8003977   6.4177146  27.3716673
  12.4080018   7.1477221  26.8927661  13.7386749   6.6070977  27.3702800
  20.0419900  23.7627141   2.1274002  20.6536021  24.4613439   1.8948515
  20.1144355  23.6878596   3.0789150  49.2709005  69.3417808  29.3979134
  50.0354530  69.8794686  29.1915567  49.1647338  69.4298832  30.3451190
   3.0811704  22.0870907  72.2786220   2.6927669  22.8197368  72.7567479
   3.3275460  21.4606663  72.9591537   2.7790520  19.8216902  52.4443263
   3.1630202  19.1257352  51.9109905   3.2504629  20.6123318  52.1818583
  72.3153822  36.0190347  41.3430755  72.3705441  35.2287735  40.8057896
  71.6923393  36.5798370  40.8809604   1.6874261  52.6680803  65.4143390
   2.1263056  52.8609963  64.5858464   1.7585291  53.4791968  65.9175947
  31.0861635   3.4726457   1.4230758  31.9856288   3.4650073   1.7503918
  31.0663110   4.1938569   0.7940352   0.6274413   5.8485528  54.6298478
   0.3782686   6.2477338  53.7963015  -0.1949051   5.7709074  55.1135310
  24.6343342  37.4613879  79.4127632  24.8082372  36.7205926  79.9934627
  25.1798880  38.1686490  79.7568339  43.6188390  10.5949858  66.6241029
  44.0889774  10.1373790  67.3210949  43.0848837   9.9169194  66.2101591
  58.3266012  47.4605283  39.5973461  59.0264727  47.9554324  39.1713395
  58.1465677  46.7361051  38.9981543  27.1755051  69.5616363  43.8345921
  27.6655004  70.0083131  44.5249660  27.5623465  69.8828757  43.0201040
  15.7892715  61.3012307  36.2833363  16.2747807  61.2687981  37.1076303
  15.4694763  62.2017919  36.2289994  53.8258279  19.0189355  57.0457067
  54.2953664  19.4658487  56.3414098  53.4198789  19.7249935  57.5486176
  81.2735772  34.3472006  61.5211936  82.1082712  34.8094450  61.4447219
  80.6767792  34.9917925  61.9014111   7.8358089  31.9678798  79.6717761
   7.9254925  31.3456555  78.9499551   7.9029956  32.8277078  79.2565490
  29.0480116  59.4115038  29.7655936  28.5528055  59.6257217  28.9749524
  29.2275228  58.4743937  29.6892250  65.8961280  65.4331830  37.0483648
  64.9475808  65.3850179  37.1674031  66.1449948  64.5579224  36.7513530
  33.9951476  43.7657904  52.4910901  34.8373780  43.3182956  52.5725038
  33.3604692  43.1503368  52.8580124  12.3654840  70.1429112   8.9214724
  12.9640243  69.3978918   8.8673673  12.8503776  70.8043496   9.4150404
  69.9075073  53.4257159  51.7956684  69.6501757  53.5808131  50.8868465
  70.4441420  52.6338558  51.7608456  69.8011968  48.7397154  57.3193534
  70.2015910  48.3898588  56.5234157  68.9547757  48.2963859  57.3764688
  51.2456664  25.4493704  71.8145426  50.4491350  24.9185925  71.8078845
  51.8648625  24.9588654  71.2739569  57.8956912  45.2588736  51.0770491
  57.2901330  44.5177300  51.0924497  57.3301752  46.0307737  51.1014150
  75.3555115   1.0338558  48.9095139  75.4022316   0.8222832  49.8418691
  75.5294036   0.2033801  48.4664523  51.5625884  25.5755685   7.2186248
  51.3127994  24.7078933   7.5363935  52.1506024  25.4013597   6.4836944
  44.5260715  60.5561831  74.2794871  43.8154925  60.2193176  74.8252260
  45.2456346  60.7105176  74.8915669  61.7398209   7.6427576  79.9019278
  62.0244597   8.5295525  80.1228519  62.5449755   7.1868933  79.6566818
  20.2749883  37.0553372  12.2645060  19.3584198  36.8406458  12.4378311
  20.3651518  37.9656926  12.5462069  65.8498842  24.6099587  44.0214984
  65.6809642  24.3268260  43.1228696  65.9483137  25.5600166  43.9587822
   7.2515833  43.1439618  46.9139349   8.1912310  43.2389038  46.7581143
   7.1897266  42.5014472  47.6207450  53.1443617   2.1634777  37.8108237
  53.9914793   2.4172880  38.1771622  52.7735103   2.9802163  37.4766993
  77.5540400  40.9270402  26.7234011  77.3435775  39.9940183  26.7609181
  78.4616827  40.9800575  27.0227432  71.6792820  32.9689179  64.0791234
  72.2126029  33.3572265  64.7726774  72.0074229  32.0734234  63.9976059
  44.0215375   7.4932635  68.4128484  44.8510023   7.7473948  68.0083275
  43.7379024   8.2740015  68.8884859  60.5628490  37.9868702  10.2990190
  61.1872203  38.7114951  10.3352297  60.7137763  37.5831480   9.4443488
   8.5939829  47.0362194  67.3999993   8.5457722  46.4885896  68.1835867
   8.5103495  47.9315660  67.7280111  28.1559035  52.0144175  16.1142145
  29.0412493  52.2912181  16.3503839  28.2689877  51.5138866  15.3061843
  10.2128353  63.5848292  35.2346803  10.8170834  64.1354185  35.7326436
   9.3648619  63.7151334  35.6591727  29.7507177   4.2722833  48.1445253
  29.7944441   4.9636008  48.8051311  30.6452831   4.2026288  47.8111595
  32.1107386  10.0691053   6.8973036  32.7788098   9.9112753   6.2302186
  31.5512848   9.2931197   6.8642935  45.0420949  37.4525375  69.8490741
  45.5049445  37.8320943  69.1021212  45.7131831  36.9599351  70.3215308
  45.9555416  44.6132111  84.5060067  45.7778653  44.1812546  83.6704970
  46.5731596  45.3112946  84.2881551  63.6389050  20.0326624  18.8474463
  62.9550838  20.3241490  18.2444073  63.9829810  19.2324172  18.4506451
  66.0698115  68.3608592  13.3787026  66.8579438  68.8901903  13.5007183
  66.3015355  67.7424444  12.6858109  50.7022997   1.6071084  40.5881931
  50.7522765   1.0050967  39.8456865  51.6061330   1.6869537  40.8930570
  54.7425760  59.8947663  43.7605504  55.6644194  60.1337306  43.8571563
  54.2896651  60.7298720  43.6434954  85.0339705  43.1260638  49.8014065
  84.4301697  43.5777350  49.2117884  85.1004682  43.7018196  50.5631906
  50.0342113  60.7512181  35.1420913  49.9933618  59.8646358  34.7835736
  50.3829397  61.2830331  34.4266941  40.6308417  63.1575702  29.0857524
  39.9561011  63.7214580  28.7076156  40.7062174  62.4284187  28.4702132
  64.9526204   4.2688996  28.0949494  64.1524915   4.5502945  27.6512799
  65.6204182   4.2717852  27.4091873  25.4324465  45.2128561  12.4181710
  25.4593272  44.3162195  12.0841769  26.3473013  45.4285739  12.5991088
  60.3629898  51.7105411  66.4456410  61.1355654  52.1270888  66.0637422
  60.0710989  52.3216824  67.1220565  46.2346589  53.6468467  29.6476449
  45.5764161  52.9525832  29.6784086  46.5627275  53.6261855  28.7486588
  74.4219235  26.4626058  41.4050401  75.1099113  26.9691292  40.9733705
  74.4515761  26.7479579  42.3182359  26.3627343  52.6870399  59.2390383
  26.2308994  53.6280676  59.1236337  25.4785964  52.3203061  59.2452272
  79.5347188  24.7397158  30.1217962  78.8322978  24.9531912  29.5075773
  80.2912215  25.2302738  29.8004112  21.8998914  13.9968176  81.9428685
  22.5752781  14.6733643  81.9915414  22.0501267  13.4523724  82.7156820
  49.5729804  24.1933177  18.9232015  49.0446426  23.5125528  18.5064880
  48.9344446  24.8340164  19.2362656  15.6694370  41.4766611  53.3565317
  15.7106308  42.4127348  53.1608256  16.5495339  41.1528887  53.1646131
   5.0926696  42.2326890  76.8089565   4.7478546  42.7967152  77.5012056
   5.4571427  42.8396647  76.1647735  76.2411625  67.5329079  33.3672881
  76.4426976  68.0536706  34.1447337  77.0955607  67.3329243  32.9848718
  62.9347642  42.6135240  88.0781785  63.4787754  41.9465116  87.6593968
  63.4841833  42.9656899  88.7784282  61.1690432  27.2151203  35.0698769
  60.2433515  27.4540392  35.0225001  61.1734005  26.2599881  35.0071445
  66.3736116  10.8116245  11.4234250  66.8412422  11.3226341  10.7628021
  65.5296487  10.6117513  11.0184445  12.1982346  55.7120476  79.5704890
  12.1505130  56.2897616  78.8087797  12.2154709  54.8292666  79.2008507
  38.3037613  12.7814093  68.2291092  37.4816760  12.4249403  68.5657655
  38.7344043  12.0360623  67.8104968  24.0801863  43.3161893  46.4737050
  24.2787628  44.0250696  47.0854957  24.9091241  43.1469760  46.0259764
  37.7815436  41.8210280  55.2383986  37.7372196  41.7332116  56.1905307
  37.6041450  40.9403012  54.9081231  32.2834362  36.1284884  22.1090334
  31.9998127  36.9196578  21.6509499  31.5815166  35.4966919  21.9529121
  44.0383918  32.1390125   1.6688425  44.6627830  32.7758891   1.3213437
  44.5742309  31.3808581   1.9018881  58.3658887  43.7006739   7.8394326
  58.4368834  44.6355106   8.0324920  59.0929429  43.3015390   8.3172562
   1.2043359  26.6832953  74.7515305   1.6962060  25.8657978  74.8289479
   1.4667181  27.0412943  73.9034597   1.7702734  34.7145892  29.9035028
   1.5587831  35.2806486  29.1611548   1.6403367  33.8261235  29.5718749
  84.7468401  56.6400962  16.5445239  84.5535173  55.7133917  16.4028313
  85.4994266  56.6400537  17.1360012   1.9309750  48.4443000   0.7508378
   2.8066065  48.5914515   0.3932797   1.9965796  48.7185644   1.6655546
  68.2645575  29.2273523  57.8139173  68.6706457  30.0932031  57.8542495
  68.8370588  28.6695358  58.3405242   7.0465236  28.6049819  84.0482438
   7.8183727  29.0809621  83.7417740   6.5400804  29.2567026  84.5330193
  60.9591351  28.5139066  73.9201747  61.0492724  27.5616282  73.8844954
  61.3129982  28.8194457  73.0849151  41.1100201  63.2462808  20.8427539
  40.6106756  62.4732883  21.1061349  41.9612927  63.1373999  21.2666782
  62.0960761  19.5663599  23.2518971  62.9805816  19.2090022  23.3304940
  62.1387571  20.1463257  22.4916012  61.3474362  35.1113289  30.3658120
  60.4166163  34.9037346  30.2838934  61.7551479  34.6850616  29.6119557
   1.5806220  14.1433811  86.6165611   1.2004234  13.4681500  87.1784720
   2.4219114  14.3486146  87.0244132  29.8282264  49.6541160  46.8921231
  29.9767683  49.3530845  47.7885311  30.3512344  50.4523421  46.8177618
  11.4787783  47.9281229  78.1393696  11.5096073  48.4141625  77.3153266
  12.3973333  47.7920748  78.3717045  62.6353746  10.9224134  32.1768712
  63.2429414  11.3095147  31.5465958  62.0081386  10.4390627  31.6391176
  81.3803733   5.2150352  57.4947804  80.4861366   4.9123277  57.3368537
  81.4099891   5.3946416  58.4345124  66.6759915  12.4914714  32.9858766
  66.4578189  13.3397577  32.5998158  67.4212782  12.1793388  32.4726975
  78.9995593   7.6195578  21.2828198  79.9445515   7.7627283  21.3350103
  78.6401739   8.4754612  21.0493600  81.8281330  35.9207871  49.9990473
  82.6065105  35.7957580  50.5419357  81.9674861  36.7658126  49.5715611
  53.8646069  25.0001919  33.9978007  54.0632524  25.6391549  33.3133314
  54.2752415  24.1900590  33.6956488  22.3899821  41.5333684  41.3864984
  22.2093849  42.1512860  42.0948728  22.5605784  40.7028692  41.8307954
  38.4330879  36.7276833  72.5108669  37.8195787  37.3076792  72.0598204
  39.2855324  36.9373552  72.1292808   9.6510059  12.2963190  16.3025777
   9.9387267  12.7477730  17.0960749   9.1722642  11.5315976  16.6223267
  83.7856244  54.8252177  55.9332835  84.0725656  55.4172824  55.2380454
  84.5681641  54.3214025  56.1569655  43.6990931   2.7019878  63.6973955
  43.5420964   2.1506829  62.9308142  43.9700652   3.5452655  63.3345060
  76.1140693   5.7820508  57.6568688  76.9806756   5.7153900  57.2558928
  75.5076009   5.5337350  56.9591819  60.5990005  41.1516789  52.4876185
  60.4090469  42.0673826  52.6916684  59.8003486  40.6820511  52.7281110
  52.2084723  35.5747278  56.4259097  51.9488363  34.9343904  55.7634982
  51.8478544  36.4039020  56.1118131  42.9417248  47.1723113  75.3220787
  43.6487710  47.7808378  75.5365854  42.6407491  47.4502196  74.4569704
   8.7388845   5.3853920  26.2823826   8.0449240   4.9922809  25.7531242
   9.2533685   5.8988659  25.6595804  65.7700272  42.4444983  53.8953357
  65.2760334  43.1329080  54.3406380  65.3938059  42.4104102  53.0158317
  67.1733877  64.8811700   1.5757913  67.8152815  64.9629162   0.8704390
  66.3252935  64.9283516   1.1344956  41.4164006  53.3732576  70.7096652
  40.6531785  52.9498259  70.3166901  41.3551064  54.2861612  70.4284500
  55.6825528   6.4680265  39.8548719  56.4968767   6.3819235  39.3591959
  55.9653178   6.6684452  40.7471208  23.0117964  60.3919020   0.7282269
  22.4740067  60.0123338   1.4231672  22.4363011  61.0247290   0.2986144
  14.3804290  63.5161709  53.0699809  14.4999206  62.5985344  53.3147195
  13.5594724  63.5278711  52.5779186  52.8614669  40.7873869  39.2982891
  53.8070561  40.7985065  39.4465089  52.4981056  40.4073624  40.0981527
  58.3492932  37.1801639  54.1913023  59.1353414  36.9181273  54.6705693
  57.6239783  36.9041613  54.7516350  80.2856639  12.4949655  82.4986087
  80.8206164  11.9366571  83.0628333  79.4491727  12.0347437  82.4299778
  81.1661116  11.5473422  15.0294693  80.8316417  10.6794359  15.2555233
  82.1073342  11.4917612  15.1945227   9.0874530  32.0380043  55.0483169
   9.2709177  32.0576279  54.1090685   9.8852090  31.6833844  55.4408241
   2.5890247  16.9232696  34.9056550   2.0820374  16.1195021  34.7909664
   1.9311400  17.6018681  35.0570601  73.4958858  34.7714717  75.4188177
  74.1771932  34.1411059  75.6526787  73.7881419  35.5955464  75.8083292
  82.5550083   9.8099861  35.6886647  82.1248927   9.9152612  34.8400484
  81.8399106   9.8355858  36.3244412  27.2909667  18.0730308  10.8152222
  27.4893779  17.3135796  11.3630348  27.8410594  18.7727095  11.1674715
  84.7978312   9.9527377  85.8497169  85.3175134  10.1350006  86.6326233
  84.3006438  10.7568131  85.6997190   4.1292220  69.3744927  84.0949794
   4.5499300  68.5254188  84.2302948   3.4186135  69.1943190  83.4795082
  52.0771253   3.7334978  78.1740908  52.6215675   3.8982894  78.9439339
  51.2101122   4.0556959  78.4204817   6.2678843  27.2299354  12.1519059
   5.3116444  27.2376555  12.1940667   6.5400616  27.9156611  12.7617678
  16.0781335  55.5479015  46.4055928  16.4746214  54.9899272  47.0746921
  16.8056713  56.0696653  46.0669439  74.6727455  15.6155791  26.8809289
  73.9477720  16.1929143  26.6414932  74.9151269  15.1832325  26.0620520
  73.7657236   9.8831489  29.1169358  74.0406200   9.6476806  30.0030614
  74.4071341  10.5341154  28.8322131   7.8393371  30.5089848  72.5112369
   7.8616499  30.4285752  73.4647925   6.9301575  30.7313917  72.3108389
  73.1512447  51.9404680  76.2216570  73.3274445  52.0637648  75.2889281
  72.9350110  51.0116389  76.3038230   2.3935000   0.5819434  24.0361515
   2.3471899   0.4391815  24.9815118   3.2365696   0.2089319  23.7786096
   0.8002271   9.4390475  52.4668557   0.0717163   9.1941719  53.0374167
   1.3547740   9.9967458  53.0124582  75.5250588  35.9450416  66.7252084
  75.8310845  36.5388149  66.0396332  74.6408653  36.2498768  66.9289463
  80.6050711  20.9883912  48.6327350  81.2417747  20.4078411  48.2158394
  79.7799063  20.7990462  48.1860995  35.0804210  30.7814179  71.0265573
  34.3981663  30.2518472  70.6138646  34.6425484  31.2015864  71.7667990
  17.8983225   3.0534502  13.5388693  18.8153147   2.8657217  13.3385815
  17.7284205   3.8954351  13.1164635  85.7519545  29.2326129  62.4805608
  85.6353084  28.7887124  63.3205477  86.6265622  29.6180569  62.5327732
  71.0010660  36.5524208  78.1680469  70.6153395  36.5537639  77.2920075
  71.0222763  35.6289448  78.4189933  56.1066473  67.6942370  33.0243071
  55.1947974  67.8413188  32.7730531  56.6107689  67.9310283  32.2458323
  64.5707085  67.9950744   6.0588126  65.4019188  68.4692117   6.0815062
  64.2953257  68.0381448   5.1430937   6.9877615  31.5149576   8.7914886
   6.8339495  31.8775444   9.6639016   6.6455456  32.1785816   8.1925534
  28.1281304  32.8017097  88.6537843  27.3280044  32.3569672  88.3740802
  27.8639535  33.7130162  88.7801278  79.9860040  54.2494712  22.7224332
  80.2835501  53.8015901  23.5143301  80.7908520  54.5507560  22.3009134
  85.3761854  34.5682749  48.2267436  84.8911348  35.1212957  48.8392187
  84.7606049  33.8739231  47.9918648  63.0265911  18.3766891  77.3752533
  63.2213118  17.4483016  77.2471423  63.8707952  18.8152895  77.2695130
   5.8067348  38.9019931   4.2964348   5.7334484  39.7632203   3.8851579
   5.8520395  38.2891687   3.5625237  79.0284108  23.7947676  59.2844650
  78.4334510  24.4366477  58.8968511  79.5906452  24.3087455  59.8640779
  80.9872733  43.2879298  72.3103505  81.5391122  43.9236768  71.8547944
  80.4812497  43.8116702  72.9315332  84.0903721  31.2817408  17.5434074
  83.7848942  30.4185388  17.2644858  83.3990054  31.6054024  18.1208908
  53.1406580  20.6981087  59.0056940  52.3996169  21.1943104  58.6580248
  53.7751953  21.3659181  59.2657416  67.5094949   9.4463075   4.6532293
  66.6605014   9.0970140   4.9242200  67.3627747  10.3876832   4.5609429
  85.9895875  31.1598974  44.9036758  86.2285610  30.6949002  45.7054870
  85.8435195  30.4671131  44.2595129  12.6066181  51.6362527  39.6157802
  12.0569399  51.1313611  39.0164720  12.8589977  52.4112803  39.1139151
  13.8996376  32.8533568   2.1002919  13.8872119  33.4844886   2.8198404
  13.6106848  33.3541427   1.3374344  84.1397045  26.4117134  49.6148586
  83.9009942  25.4910476  49.7226714  83.4394854  26.7791185  49.0754714
  39.2815659  36.6046199  35.4083931  38.3373099  36.4619799  35.3430761
  39.3739299  37.5512834  35.5157667  66.0057198  30.7000007  47.6589234
  65.5624185  31.3159455  47.0755472  66.0813792  31.1691929  48.4898062
  66.0722645  66.9971150  60.6491959  66.3708628  67.9053900  60.6951031
  66.8542541  66.4997214  60.4097722  49.6974500  44.4657994  70.4911494
  49.2134049  43.8899876  69.8992264  49.5196860  44.1159111  71.3641958
  56.6871612  18.2610260   8.9285310  56.1775010  17.6864812   9.4998248
  56.3376867  18.0987916   8.0523008  29.7053754  53.4134252  86.7272340
  30.6005238  53.6342066  86.9845215  29.1555745  53.8329909  87.3889857
  59.3043873  35.0578853  84.5449101  60.1792180  34.7443907  84.7743097
  59.4178592  35.9965202  84.3955099  44.2896612  47.7311143  55.7880550
  43.8123716  47.1877773  56.4151207  43.6562334  47.9063357  55.0921394
  30.0347299   7.9347531   1.3276802  30.7160996   7.4582514   1.8019304
  29.4020472   8.1822919   2.0019716   2.0925242  20.4445186  54.8727304
   1.7263415  19.7130725  55.3698508   2.2914169  20.0739802  54.0128613
  57.6445588  48.9821833  17.8507007  57.5347807  49.6451873  18.5323211
  56.7988956  48.9566389  17.4030031  67.1914249  70.3227621  44.9905451
  66.4230286  70.8046222  45.2965023  67.8916924  70.9750911  44.9725393
  79.9730595  65.9833629  16.5833912  80.6899884  65.3800037  16.3879368
  79.9593581  66.0375057  17.5389605  45.1783530  70.5514502  51.1148969
  45.8684699  69.8909449  51.0540433  45.3411936  71.1368329  50.3752741
  50.2822799  47.1669560  54.7183481  50.0104499  46.5903591  55.4324043
  49.4659940  47.4050007  54.2787528  39.6230112  53.5044154  63.7348351
  40.5420839  53.5896868  63.4813277  39.6398874  53.4781082  64.6915247
  30.2180314   3.5672136  10.6781510  30.7190402   3.1738901  11.3926568
  30.4250231   4.5005431  10.7259254  44.9721927  48.4629327  32.5069052
  44.7665070  47.5311419  32.5823450  45.7830238  48.5702502  33.0041654
  59.8886812  48.2032505  63.3651557  60.6949187  47.7540993  63.1112344
  59.3556402  48.2063246  62.5701150  35.6003407  40.6012805  78.9546741
  34.8922146  40.3219217  79.5349740  35.6778227  39.8944492  78.3138794
  27.0513336   3.4301194  85.1769688  26.6507183   2.8856604  85.8546883
  27.0436481   4.3140213  85.5442428  76.6638941  56.7008121  62.7063885
  76.7252509  55.9138800  62.1649044  75.9662736  56.5069514  63.3324680
   3.5579969   8.3832477  20.6060041   4.2109093   8.0659093  21.2298900
   3.1852531   9.1597322  21.0235752  34.2930679  63.6391810  30.9441187
  35.2273880  63.4842601  31.0829616  34.0827404  63.1420958  30.1536122
  53.2218463  12.0282488  35.0509611  53.2808130  11.4835042  35.8358229
  52.5716033  12.6954093  35.2707630  37.6403455  43.1028150  14.1129322
  36.6993932  42.9937664  13.9752767  37.8241637  42.6097388  14.9125062
  80.8260192  24.9834906  44.9422104  81.6392279  25.4760904  45.0529758
  80.2158095  25.3865798  45.5597823  76.0433297  51.4650331  49.5342787
  75.2236410  51.7441740  49.1263293  76.0096001  50.5087436  49.5096897
  56.0811502  21.8809612  43.4970605  56.0875228  21.0146703  43.0899593
  56.4297431  21.7349003  44.3764813  29.7014172  64.1269449  46.6556861
  29.1607216  64.8557729  46.9601362  29.2563263  63.8105820  45.8695306
  65.1464402  67.5995528  73.4450484  64.7306077  68.3601772  73.0391351
  65.8671995  67.3776039  72.8555769  71.5361557  12.9882370  49.9077553
  70.6735026  13.3198958  50.1568816  71.3766925  12.4792383  49.1129448
   0.6419751  34.9587388  57.0256329   1.1848362  35.4388267  56.4002936
  -0.0495308  35.5755897  57.2655213  75.5288150  13.9499881  39.2944534
  75.7275719  14.1988149  38.3917836  75.0390461  13.1314298  39.2149519
  32.9795770  23.6863423  14.2845445  33.2284409  23.2060166  15.0742189
  33.8113919  23.9649806  13.9015610  46.0646436  27.3556536   5.3859405
  46.3009713  26.6268333   5.9597018  46.8968376  27.6463957   5.0129068
  83.5185468  37.5483407  45.5682154  84.1366290  37.1333557  44.9665564
  82.7131615  37.0399805  45.4725270   9.6180394  55.5962106   0.8521120
   9.2309953  56.3531174   0.4122019   9.2664482  55.6305787   1.7417379
  47.9004561  45.6565660   5.5236167  47.4648802  46.1490608   4.8279484
  47.2754096  45.6622343   6.2485419  56.5813021  49.6481783  88.2181069
  56.9987838  49.7297736  89.0755934  56.8635591  48.7926125  87.8947342
  46.3135518  58.7292917  14.8714732  45.6966863  58.2823772  14.2918387
  45.8572387  59.5277299  15.1370042  43.4422977   1.0367630  23.2579785
  43.5060736   1.8697240  23.7252477  42.7481806   0.5595999  23.7126748
  33.6112834  37.1833684  27.6469993  33.2143676  36.3246968  27.7931939
  32.8785164  37.7973230  27.6954142  84.5168185   3.1373014  17.5586680
  84.5481321   2.1806496  17.5669557  84.2111642   3.3593263  16.6791725
  43.0181090  29.9716044   7.0452407  42.1115159  30.1592387   6.8021068
  43.1649738  29.0737676   6.7476643  24.1621728  37.9331374  25.6992014
  24.7418855  38.2387029  26.3969081  24.7375706  37.8179333  24.9429758
  48.9590438  70.0039845  52.3304228  49.5943939  69.3031736  52.4767993
  49.4850283  70.7453128  52.0304153  47.4618464  60.2063383  21.3861733
  47.8987034  61.0158386  21.6509319  46.5469896  60.4580766  21.2600911
  50.6253914  66.5342036  77.1223060  50.0215103  66.2097273  77.7903438
  50.3923747  66.0471541  76.3319150  49.6356702   3.1394907  20.2711998
  49.3377235   4.0320637  20.0957775  50.4682918   3.0688128  19.8043189
  63.8932345  11.3165384  86.0550009  63.6692767  10.6507910  85.4047277
  64.3465094  11.9959683  85.5558529  70.4079623  56.1155849  77.5998204
  69.8803597  55.5054822  78.1152250  69.7733410  56.7332145  77.2364729
  84.1416908   5.1663190  15.2149214  83.4117494   5.4138738  15.7824898
  84.6618750   5.9654856  15.1314174  27.9535270  66.0122678   0.5624075
  27.8959190  66.2476575   1.4884231  28.1918502  66.8281726   0.1222562
   6.4524965   2.0244500  59.7041086   5.9624321   2.8395233  59.5958303
   6.6345619   1.7339195  58.8104218  15.1343347  69.7925282  55.1527396
  15.9813847  69.3538622  55.0733018  14.8498968  69.6039706  56.0470399
  76.4736031  64.9016853  67.4026646  76.8376158  64.8368985  66.5197550
  76.8526678  64.1592310  67.8730936  66.4756946  35.5704158  62.5339329
  66.6520127  36.0298371  61.7129116  65.7217445  35.0135907  62.3396728
  60.8053769  63.5174605  63.2559852  61.4149946  63.2037372  62.5880214
  61.1886925  64.3390002  63.5631881  51.9807464  42.1850570  58.3026252
  51.4840338  42.5621398  57.5764593  51.3201015  41.7599191  58.8494688
  38.0125149  46.3395981   7.5104493  38.8766441  45.9544025   7.6558348
  37.9255182  46.9993135   8.1985184  36.9310729  40.0913529   9.2737542
  36.9981144  40.4349987  10.1646217  36.9887101  40.8653307   8.7135149
  19.2756454  62.3478725  63.5405869  19.3696113  61.4569099  63.2035586
  18.8820914  62.8370097  62.8180276  60.9903483   5.9181101  47.1487327
  60.6017506   6.7783313  47.3076140  60.2492396   5.3127180  47.1708709
  49.8816613  71.0549915  62.2158203  50.5897019  70.4883468  62.5221273
  50.2945622  71.6247044  61.5668427  30.7088093   6.6159844  19.0179610
  29.7537232   6.5592857  18.9891919  30.9053891   7.5021910  18.7142734
   8.8729419  66.4087001  83.7062301   8.3943616  65.6625807  83.3449844
   8.3078542  66.7406548  84.4038789  14.0929659  25.6521676  59.8916571
  14.2760930  26.3793106  60.4866020  13.3563879  25.1925866  60.2947328
   4.4727053  18.8937075  13.3273758   4.5953238  18.9137600  14.2764777
   5.0362305  19.5939424  12.9982218  86.1294935  55.5149987  14.2118004
  85.3362904  56.0497616  14.1787974  86.8465683  56.1488144  14.1941007
  82.9661259  10.4398128  76.2170864  82.6768640   9.9681951  75.4359743
  83.4599713  11.1860088  75.8771746  69.2908158   7.0872836  87.9774914
  69.7251442   7.8669830  87.6315730  69.8329377   6.8206562  88.7199506
  70.8494025  38.2298050  16.6242013  70.2952482  37.4605128  16.4925412
  71.1925190  38.1287074  17.5120539  60.8681670  26.9016875   2.5612070
  61.5083324  27.5469268   2.2610631  61.0831353  26.1063921   2.0738409
  24.1021663   4.4198475  77.3530229  23.9875833   5.3681993  77.4141075
  24.7995869   4.2221031  77.9781098  65.7607814  11.2593853  27.1005632
  66.4297115  11.0113777  26.4623966  66.2361084  11.3374049  27.9277324
  12.5290762   2.0688131  85.6330241  11.9218427   2.4800899  86.2481263
  12.1311627   2.2089222  84.7738000  74.7263391   2.3438137   8.6182392
  75.6411058   2.4915391   8.3782165  74.4405730   1.6316872   8.0460108
  21.3008565  63.3117261  33.3111640  20.9347697  63.4944552  32.4458188
  22.1032723  62.8211794  33.1330497  35.4708136  38.1520789   5.0343921
  34.9169029  38.8822678   5.3105062  35.4154786  37.5238433   5.7544546
  49.3234817  33.4173602  24.5738352  48.5298207  33.5208347  25.0988371
  49.3703900  34.2173791  24.0503840  24.7211876  66.9882750  68.7269965
  24.2272573  66.1834391  68.5704599  24.1874121  67.6775732  68.3317958
  55.2321012  45.8956519  22.2641906  55.5468528  46.6531013  21.7708006
  54.4756410  46.2239198  22.7502359  15.5247837  61.0845889  50.2714261
  15.7716428  62.0089874  50.2993513  14.8699591  60.9905493  50.9632303
  69.2658288  36.4289103  46.8689944  70.1918026  36.1976685  46.7959763
  69.2097018  37.3113466  46.5024052   2.3432853  33.2089402   5.5670950
   2.4607130  34.0187507   5.0704567   1.3978907  33.1464713   5.7033251
  46.5798659  66.6636382  88.7517023  47.0129455  67.4876705  88.9745132
  46.9866374  66.0159966  89.3273142  62.9320645  66.0969122  11.1479277
  63.6817492  65.5319761  10.9607064  62.2166918  65.4902031  11.3386570
  63.0737466  27.7298003  46.9852062  62.9954272  28.2167068  47.8055842
  63.0456217  26.8100779  47.2489327  34.6382375  25.2537501  78.4495568
  34.5443930  24.3931031  78.8578602  35.5586634  25.2967910  78.1903359
  34.6913223  44.9066719  86.4475228  33.8049862  45.2595489  86.3693056
  34.5764263  43.9576332  86.3989812  29.1832128  24.0429155  16.6061748
  28.2698101  23.7579770  16.5790197  29.6167776  23.4037806  17.1716480
  64.3111622  20.5734876  58.6696227  64.8205030  21.3401654  58.4069273
  63.4148867  20.8987803  58.7539244  43.1696510  65.1812348  64.7770098
  43.2614605  65.2729477  65.7253724  43.3501906  64.2566800  64.6071989
   9.2789372   0.2556845  26.1355557   9.9852779   0.0157838  26.7353575
   9.7107425   0.7615035  25.4471350   3.4618955   5.5315153  80.0912537
   4.4062775   5.4268015  79.9754541   3.1923391   6.0933595  79.3646848
   5.7265058  23.7953596  80.0453652   5.1585713  24.5623993  80.1183878
   5.3574481  23.1643788  80.6633389  37.7431106  47.1692728  82.5686005
  38.5164160  47.4296081  83.0690565  37.8430605  47.6119071  81.7257976
  72.1733763  47.7497091  86.2705705  72.2370969  48.5256265  85.7136829
  73.0358072  47.3390669  86.2087819  27.8414003  30.4868945  85.7167207
  27.1776066  29.8328812  85.4979138  27.4607078  31.3183976  85.4340414
  67.5898972  54.6047841  74.2349226  67.6216486  54.7859415  75.1742872
  68.1311091  53.8232078  74.1232977  51.2795681  23.8549019  63.6537294
  52.1481406  23.8306730  64.0552597  50.8059788  23.1310171  64.0635292
   4.2985354   4.1725024  59.8420366   3.8326655   3.6794985  59.1666521
   4.0569812   5.0848187  59.6821542  10.0310304  56.6367368  13.7778895
  10.8420592  57.1117092  13.9591773   9.9912133  55.9629792  14.4566362
   9.6389571  38.1249409  23.3890796   9.7653053  38.5029314  24.2593618
   9.9969731  38.7794797  22.7893836  16.9996360   9.4738994   6.4977722
  17.2457644  10.3897672   6.3680071  16.7724416   9.1605927   5.6222989
  20.4631324  70.0223243  38.6984997  20.9338727  70.0945643  39.5288109
  21.1081618  70.2679976  38.0353153  30.9338883  61.5881517  38.7754439
  30.3446129  61.0229850  38.2758711  30.5244219  61.6584845  39.6377793
  66.2524007  42.3710737  71.0553572  65.9569504  41.7477818  71.7190199
  66.0021401  41.9708620  70.2226315   2.3750417  56.3706751  88.8240841
   1.5375720  56.2618782  89.2746832   2.3547833  57.2691439  88.4945766
  39.5912288  71.2224367  67.9645691  40.4770610  71.2664887  67.6045793
  39.6965160  71.4499831  68.8883489  81.5240624   2.5179756   5.9729781
  81.3070342   2.2487168   6.8655196  82.4072451   2.8808564   6.0403406
  85.0414230  70.4553287  45.1543928  84.6699972  71.3270550  45.0188645
  85.8009775  70.4255205  44.5726538  36.5081368  26.2879632   7.5351773
  36.1789376  25.4096509   7.3443180  36.6550711  26.6808784   6.6747938
  68.3990668  58.3182225  34.4496740  68.7943969  58.3002242  33.5781110
  67.7587577  57.6068331  34.4369737  76.2270712  24.1521411  12.8553746
  75.6336296  23.8660112  12.1609765  75.7665213  23.9389613  13.6669656
  19.0834729  47.9333920  47.2015481  18.9077411  47.4696529  46.3828319
  19.8747880  48.4417679  47.0237669  11.4465922  29.1386206   1.3694874
  11.8276507  28.7941266   0.5618055  10.6756413  29.6272474   1.0811984
  32.1706380  34.9603806  27.6589738  32.5802037  34.1869019  28.0465541
  31.2351881  34.8451200  27.8259482  71.4339244  70.2768950  74.6675105
  71.1178964  71.1558022  74.4580343  71.4895616  69.8342150  73.8206512
  64.0895670  66.5442358  67.2811291  63.9597714  67.4117758  66.8980372
  65.0152827  66.5256739  67.5239002  52.5931898  50.5251350  34.4467931
  51.9129583  50.2313945  33.8407951  52.8501072  51.3869697  34.1189728
  83.0437506  52.5990207  65.9350836  83.4129310  51.8133148  65.5318420
  82.6339242  52.2846486  66.7409647  28.1026844  68.6126065  46.8614377
  27.4502326  69.2686512  47.1066801  28.5043177  68.9602479  46.0651539
  65.1777075  18.6589508  56.9917287  64.8412253  19.3764393  57.5285916
  65.8427241  18.2415953  57.5392677  44.7276662  42.9870937  36.6789367
  44.6889361  42.0620464  36.4359979  44.0047356  43.1032846  37.2954615
  16.0007108  47.8262028  70.3574553  15.1789572  47.9766196  70.8247107
  15.8338255  47.0496402  69.8232908  64.0024975   9.4186432  83.9883470
  64.0695222   8.5077026  84.2745755  64.5495067   9.4641662  83.2041657
   5.5056379  22.5363089  22.6504787   4.5796166  22.7717546  22.7077655
   5.5029164  21.6153536  22.3895845  79.2180243  30.8982323  28.8494876
  78.9870066  31.4441156  29.6010686  80.0652394  31.2362739  28.5593389
  65.8608683  19.2545680  76.9755317  66.2976342  18.4399827  76.7266978
  66.5154230  19.9350350  76.8181954  65.2908326  70.1452598  21.0640737
  64.6641227  69.9003863  21.7448846  66.1072024  69.7194107  21.3256548
  66.3329391  64.1010036  40.1516774  65.6887814  63.4769259  39.8172828
  66.1723401  64.9016883  39.6523340  31.5690744  26.0618970  17.2248240
  31.8375934  26.5924019  16.4746947  30.7933757  25.5912103  16.9199021
  74.2330356   3.6194525  16.6227220  75.0173611   3.0766103  16.7026455
  73.6579433   3.3141683  17.3243646  61.7585091  10.8993107  70.8220551
  62.2368143  11.7209969  70.7112046  62.2072033  10.2812713  70.2450519
  67.9934038  65.0182574  80.3225823  68.0390922  64.8070731  81.2550766
  68.6197639  65.7329253  80.2078885  42.9805406  67.9391561  85.9025148
  43.8181642  67.4759615  85.9108412  42.3241214  67.2487420  85.9956487
  73.5613317  70.7976828  39.8800356  72.6776060  70.7750376  39.5129555
  73.4919276  70.3115344  40.7016649  46.7742061  56.7825207  21.1407353
  47.3603791  56.1648279  20.7035983  46.2158904  56.2339336  21.6917051
   7.3008442  63.8631499  58.7638917   7.7394893  63.4835265  58.0025059
   6.3715713  63.6859726  58.6179740  82.9965313  46.5739946  85.6171964
  82.8498846  47.5198906  85.6199063  83.9085740  46.4722392  85.8893281
  69.0930840  14.3709320  70.0161863  69.1803893  14.5984173  69.0905189
  69.7620385  14.8956925  70.4559114  69.2064311   5.2300580  16.2517331
  69.3515742   5.4770120  17.1650672  68.5291852   4.5547559  16.2909362
  80.3780839  32.2668108  69.6701245  79.8846883  32.2403189  68.8503130
  81.0415160  32.9421483  69.5286714  83.5253483   9.5296532  81.7602540
  83.7471607  10.0579031  82.5270545  82.9222028  10.0777145  81.2581822
  22.1507506  63.8526508  38.8075245  22.6077833  63.1517688  39.2724088
  22.1705059  64.5940235  39.4126758  22.1013099  65.9015500  45.8477457
  22.2213281  65.1740242  46.4581010  22.5386626  66.6417852  46.2684667
  85.0848988  52.5121329  43.2657714  85.1096388  52.7642549  44.1888393
  84.1546971  52.5200414  43.0401744  65.0199589  45.2415997  76.6914195
  65.5501062  45.6818459  77.3557680  65.3021142  45.6304218  75.8635079
  85.2501714  10.9083095  70.6036002  85.6977825  11.6803502  70.2574364
  85.9537140  10.2857628  70.7871628  75.7553321  43.9704435  88.8453115
  75.1761160  43.8973745  88.0867593  76.6375849  43.9010222  88.4805617
   6.3369895  26.7612387   4.0720715   6.4802830  25.8206727   3.9670270
   6.5729823  27.1357246   3.2233669  83.7511259  32.9845861  59.6997952
  83.1678500  33.3086545  59.0135002  83.8180593  32.0444078  59.5330125
  19.6205816  58.6150874  19.7045281  20.2486477  58.2222691  19.0983445
  20.1535467  58.9137370  20.4414055  20.2425796  10.9359434  48.5494625
  19.6851177  10.1931896  48.3175471  20.6367962  10.6876509  49.3856300
  79.6707082   4.6007044  74.8668141  78.8613979   4.7540581  75.3543911
  79.4058402   4.0497435  74.1302553  65.5090063  58.8704217  26.1706902
  64.7347899  59.0898260  25.6523442  65.1905411  58.8324014  27.0725584
  39.9009427   4.8827536  51.7385461  39.1998878   4.4953856  51.2144278
  39.5010790   5.0412837  52.5936537  31.6242262  42.5918327  72.0770947
  32.4437360  42.7920265  71.6248140  30.9475805  42.7107430  71.4105793
  39.4139586  23.8917875  83.4450788  39.6722594  24.2519656  84.2934799
  38.6560927  23.3404191  83.6396655   0.5690741   1.9039648  47.7439625
  -0.0822163   1.2105072  47.6382783   0.7483415   2.2021067  46.8522189
  39.5982156  52.1645948  68.6210806  38.8852166  51.5439851  68.4703897
  40.3901151  51.6815946  68.3847805  64.6691755   8.0724141  26.7461980
  63.9739359   8.7117004  26.9017188  65.4787104   8.5503566  26.9263536
  70.4842059   2.3515563  14.0787373  70.4050409   2.4939870  13.1355098
  71.1099874   3.0149672  14.3694527  56.9804377  22.4386912  70.2507904
  56.5445547  23.2800935  70.1155866  56.2649925  21.8062889  70.3174029
  22.7118992  57.1874813  25.6677020  22.0600331  57.8866739  25.7170187
  23.4368215  57.4971437  26.2106833  25.9622352  39.4938986  54.9667486
  26.8261790  39.3920267  55.3660668  25.6687996  38.5983581  54.7990148
  75.0426292  58.2061102  46.3093958  74.8023145  57.9385459  45.4223276
  75.5193879  59.0276271  46.1908929  50.0564236  23.3460568  86.3374679
  49.4517534  22.8148087  86.8555231  49.7385216  23.2627554  85.4384512
   0.3569227  65.5442037  20.9193373   0.8236679  66.3286431  20.6311783
   1.0243184  65.0155045  21.3567065  31.7474339  45.1087086  46.9145195
  32.5942859  44.7970961  46.5951902  31.3412576  45.5215656  46.1524160
  43.8716347  30.7871834  85.8463590  44.3569134  30.6968543  86.6664670
  44.3250669  30.2071791  85.2346189   8.7177905   7.2637077  69.3236054
   8.5955675   7.8689953  70.0549879   9.6342659   6.9946135  69.3859984
  77.5919543  48.4196594   4.8227914  77.7664861  48.7690307   5.6966965
  77.1903918  49.1482548   4.3493698  73.1915306  19.1427176  62.2989739
  72.6889197  18.5052338  62.8061508  73.7111995  19.6119179  62.9516814
  17.0322079  28.0638123   0.1556241  17.2505082  28.6529769   0.8777473
  17.2759414  27.1945263   0.4736929  83.3727039  57.2640865  13.2983315
  82.5183617  57.0321853  13.6624100  83.6745766  57.9925303  13.8409864
  36.0041731  15.1179430  82.4769728  35.6761614  15.1765682  81.5796416
  35.2373492  14.8777235  82.9970762  78.1544489  12.4871727  35.8548867
  77.9907134  11.9731307  36.6455721  79.0566237  12.7924893  35.9502507
  25.5178929  40.6691513  70.0924780  25.2428308  41.5625410  70.2984579
  26.0098648  40.3862810  70.8633086   5.9905370  68.0986154  24.8545797
   5.8192736  68.0829202  23.9129564   6.5600270  68.8573783  24.9818268
  66.5166423  35.0906671  69.5210861  66.6290746  34.7584877  70.4117306
  67.3711158  34.9641946  69.1086403   5.3175241  54.2347296  63.3072570
   5.4126787  53.3059451  63.5182943   5.6553546  54.6912546  64.0777681
  61.3838380  38.8663145  51.4768399  61.0765394  39.7546302  51.6576565
  61.9434890  38.6500216  52.2226549  61.4483511  37.0696585  74.1544038
  60.8253865  37.1559078  73.4328029  61.6597440  37.9710566  74.3973571
  60.4476012  48.1757193  36.2706417  61.3903159  48.2561798  36.1255660
  60.3693995  47.8751133  37.1760435  43.4535912  21.3853334  65.0972100
  44.0262893  21.8976473  65.6679842  42.6597294  21.9141525  65.0174257
   6.8064267  60.7988183  25.7832850   7.0633772  60.5400809  26.6683066
   5.8517506  60.7293869  25.7811148  31.6125091  63.5898987   2.4913795
  30.9284571  64.2577564   2.4437263  31.3704520  62.9508683   1.8210957
  47.7131293  36.9941034  86.1765144  46.8149396  37.3020304  86.0554029
  48.2248179  37.7927482  86.3052516  38.3134529  39.8718906  66.0565882
  37.4383284  40.2497953  66.1436335  38.4226086  39.3369118  66.8427908
  19.7369202   0.7936145  72.4547736  19.1592939   0.7482242  71.6928554
  19.3987297   1.5271579  72.9683622  52.8413827  59.5644919  67.5243752
  53.5458078  59.2924370  68.1125957  52.8353736  58.9006603  66.8347931
  49.4796067  15.6538494  65.7040404  49.4945616  14.9802489  66.3839452
  48.8081386  16.2715339  65.9935716  28.7422894  25.7379443  71.1147951
  29.5317751  26.2550318  70.9549053  28.6337749  25.2146949  70.3206500
  54.6777547  41.9714725  19.6042823  54.1477297  41.9940761  18.8075424
  54.7552407  41.0407669  19.8140795  59.8983483  24.3947244  45.0119452
  59.8541164  24.4821644  44.0597742  59.2014515  23.7752094  45.2282040
  53.4589347  66.1078295  59.9366988  54.2251034  66.6810920  59.9124622
  53.7141086  65.3914418  60.5179963  24.1837748  71.4410192  81.0896219
  24.2337347  70.9127850  80.2929384  24.3014300  70.8122375  81.8016771
  75.0545852  62.3036393  52.9072129  75.1762560  62.1115749  51.9774068
  75.9242575  62.1909041  53.2908701  72.4851749  24.6284330  72.4270126
  73.3781510  24.3925642  72.1756335  72.5212373  24.7224635  73.3789000
  75.3543764  10.4867951   2.7667657  75.4227269  10.7272211   3.6907545
  76.0253415  11.0131594   2.3320493  78.0026312  28.8729050  30.2401517
  77.4790464  29.6626574  30.3757317  78.5748220  29.0883916  29.5036770
  42.8546378  51.1196864  64.8077276  42.5542359  51.0484304  63.9016850
  43.4470261  50.3766731  64.9227886  54.4659929  42.5691307  61.9572769
  53.5197294  42.4278889  61.9278178  54.5805046  43.2979162  62.5671873
  44.8765474  25.3885735   0.8887394  45.2516919  24.5120829   0.8035185
  45.5393758  25.9700553   0.5162220  11.6288772  19.6106354  78.3978092
  12.5648927  19.6359207  78.1991449  11.2092176  19.4453433  77.5535366
  23.9013946  12.3968275   1.4215247  23.1797416  13.0150702   1.5365233
  23.9579476  12.2681307   0.4747033  49.8839621  25.0551211  61.8703462
  50.2978673  24.6848193  61.0907368  50.3198069  24.6194203  62.6027641
  21.6436430  41.8109751  72.1935548  22.5799373  41.6327606  72.2820107
  21.5822024  42.4022302  71.4433054  36.3468487  32.9700368  11.3490806
  35.8236991  33.2013830  12.1165604  37.2119314  33.3380811  11.5291002
  29.4831026   9.6136102  70.2809223  30.1256140  10.2991405  70.4638405
  28.6811081   9.9174109  70.7060597  70.0445993  27.2740829  78.2739593
  70.8434707  26.9002500  78.6458267  69.8389090  26.7078587  77.5301088
   2.1882684  12.6688681  68.5192578   2.8715230  13.2082358  68.1211654
   2.3693597  12.7075493  69.4583752  38.8738517  36.2770220  82.7173375
  39.4406511  35.9458271  83.4139581  39.4788200  36.6003210  82.0497126
  10.3877363  32.3586800  60.1209478  10.2577388  31.6306037  59.5132987
  10.4993125  31.9409250  60.9749169  31.6037451   3.3253773  74.5220605
  32.3591216   2.9321643  74.9591209  31.9345109   4.1512600  74.1688701
  70.7294483   4.8336473  24.5565388  70.0783557   4.7640865  23.8583472
  71.0500414   3.9395470  24.6750151  65.5816911  12.1930098  36.5134909
  64.7884019  12.3137096  37.0353679  65.2683630  11.8464071  35.6780725
   9.7960108  30.5636406  27.6490494  10.5746320  31.0502358  27.3784833
   9.9992421  30.2590465  28.5334426  78.7630235  17.5481770  71.5530991
  78.1411124  17.5184155  72.2801291  78.6103711  16.7337806  71.0738417
  38.3682879  68.1402678  43.8326846  37.5383591  67.7552083  43.5512965
  38.1688049  68.5507467  44.6740795   3.1167810  11.6532793   7.4428504
   3.1815844  11.3542391   8.3498274   2.8176829  10.8841539   6.9578573
  75.6654928  38.1536213  19.5161771  75.6819217  37.8572008  18.6061789
  75.9364974  39.0706998  19.4742782  50.1737011  66.3480111  58.9063089
  50.9367510  66.8442944  59.2024333  49.5148808  66.4939260  59.5852025
  11.2880991   2.4117904   7.7967917  11.5560218   2.2567107   6.8910326
  10.7888105   3.2277363   7.7625146   4.2394146  36.9803509  85.3546961
   4.4319503  36.0859143  85.0733687   4.9985167  37.2351029  85.8791933
  31.7110089  65.6566736  15.5307917  32.3700306  65.0859777  15.1355343
  31.4101113  66.2100855  14.8100784  11.8033397  69.2841509  62.0775672
  11.0270115  69.8196830  62.2411270  11.5741764  68.4196606  62.4187014
   7.6054093   5.6529302  60.5897019   6.8103522   5.7301481  61.1171045
   8.2701361   5.3394536  61.2029739  35.9618793  41.7936866  15.9401432
  35.0323110  41.5709420  15.9903369  36.0961820  42.4222882  16.6494067
  72.3544810  33.5526318  87.4855353  71.9618775  33.6529457  88.3527328
  72.1423106  34.3677689  87.0308188  64.8525579  65.7228401  62.6707155
  65.3447351  66.1399532  61.9636015  65.4837958  65.6401253  63.3855084
   2.1269913  46.5258986  61.1542774   2.6280173  46.0759855  60.4739959
   1.8477337  47.3444964  60.7442228   2.8771449  47.6572241  78.3398613
   3.0170413  47.3130220  77.4577129   2.3673686  48.4564275  78.2070687
  49.2966859  63.1707310  59.2666436  50.0900980  63.7061341  59.2751691
  49.5868987  62.3176035  58.9438715  59.9753859   0.4410738  20.7115958
  59.3506831  -0.2335023  20.9779139  60.0517047   0.3358604  19.7632617
  63.9621446  10.3107087  57.7999351  63.5863890   9.5141195  57.4251216
  63.5555032  10.3840680  58.6633544  18.7103672  20.3183340  15.9763692
  18.1318090  19.7827782  15.4335228  19.3782715  19.7080577  16.2889368
  44.3614973   2.7522260  57.4580058  43.7782799   2.0534855  57.1616089
  45.1143623   2.7017697  56.8690404  80.5011593  54.8222281   7.8611734
  80.9833530  53.9977054   7.7988554  80.7961698  55.3299410   7.1052447
  27.4101288  59.7952613   3.8823921  27.7548117  60.3203057   3.1600667
  26.4634288  59.9323175   3.8476569  70.4497426  25.9709653  83.5139176
  69.5830533  26.1801621  83.1656102  70.9240515  26.8020740  83.4910859
  73.0508635  33.6897508  39.9881802  73.1944978  33.6977525  39.0418520
  72.9169419  32.7664712  40.2023100  83.9177654  43.2700443  79.0792999
  83.3750334  43.6789802  79.7534255  84.7386181  43.7619089  79.1017012
  86.4093093  22.2607524  26.7750308  87.0868873  21.9612329  27.3811726
  86.7355588  23.0983188  26.4459780  61.5984532  10.9457974  55.1147370
  61.0772357  10.8297071  55.9091470  61.5002404  10.1198626  54.6410095
  25.5052489  57.7003302  82.9275607  25.7287291  56.8090547  83.1957332
  25.9942509  58.2613071  83.5295688  14.1130673   0.5063143  83.8781855
  14.3537129   1.3484715  83.4920600  13.7175911   0.7330025  84.7198760
  14.5678424  57.3854338  76.3759134  14.7346179  56.5587493  76.8286942
  14.5946223  58.0468501  77.0673201  67.7948436  33.7981139  64.0635873
  67.4321572  33.8663880  64.9467798  67.3034855  34.4412320  63.5525119
   4.6717959  44.3573623  65.1874102   5.3906258  44.2696289  64.5614563
   4.1061427  45.0308571  64.8096895  57.3810905  64.2421086   4.0714587
  56.9108165  65.0246100   4.3591491  58.0071095  64.5638523   3.4227577
  69.4891369  21.4586280  31.4611963  69.0469195  21.1927971  32.2674281
  70.3446991  21.7756076  31.7506252  40.8497986  40.2782110  86.9702148
  40.7367598  40.0150304  87.8835548  40.5566879  39.5202042  86.4645037
  62.9826025  43.8707786  75.3542546  63.6922753  44.2999746  75.8321532
  62.3225314  44.5546044  75.2405872  11.7747499  57.7424977  55.1265414
  12.5213092  57.1476308  55.0557283  11.9179044  58.3897532  54.4360351
  59.6847330  39.0520352  60.0283726  59.6167252  39.9500529  60.3526736
  58.7946330  38.8271593  59.7574766  11.0778157  61.9205857  68.0079996
  11.4674734  61.2275310  67.4750138  10.3538642  61.4927250  68.4652318
  74.4912680  59.4210952  57.7605053  73.5736807  59.2565035  57.9777032
  74.9847105  58.9212131  58.4107853  40.2078764  13.7259575  72.5125431
  40.5661127  14.0734220  73.3293461  40.9160579  13.1959731  72.1467190
  23.8351653  51.4860730  60.2873497  23.0736357  51.8584670  59.8427968
  23.6398775  50.5514263  60.3546562  28.2884918  31.2766492  75.0439810
  27.7935645  30.7697066  75.6876331  28.9666100  31.7171593  75.5561708
  67.3587949  12.4162802   9.4872009  66.9332299  13.1208363   9.9757977
  66.8079568  12.2944209   8.7139224   4.2000156   6.8122879  60.7608499
   3.3495299   6.9302732  61.1839165   4.0622574   7.1056730  59.8601947
  16.7900108  49.7311284  32.8132196  16.8733250  48.9750598  32.2321424
  17.4878627  49.6156186  33.4581166  62.0068601  67.4703939  28.7366683
  62.5926659  67.9889948  29.2881359  62.1439004  67.8127956  27.8533717
  67.4062681  47.7360715  88.9383786  68.1484114  48.3200461  88.7820813
  66.7762420  48.2728389  89.4191901  85.6413036  65.5266221  68.5312985
  85.6849788  65.2411619  69.4438975  86.4934184  65.9298888  68.3654422
  66.2634165  26.0109789  60.3118498  66.2583136  25.0538964  60.3259477
  67.1797021  26.2434191  60.1614366  40.5228123  29.9046873  45.8848081
  40.8262016  29.4381777  45.1059913  41.1835882  30.5815919  46.0311203
  83.2563070  65.4389553  46.4407241  82.7521038  65.9475491  45.8056309
  83.8945767  66.0597343  46.7921171  79.5551015  17.1928653  51.1406644
  79.7342997  18.1259204  51.0243547  80.3816836  16.8277654  51.4564110
  21.6317515   6.0184724   1.3226334  20.7256609   5.7581983   1.1568352
  22.0735539   5.2053657   1.5673781  11.9254049  63.3770713  51.9301680
  11.6047468  62.5380932  51.5992208  12.0789733  63.9016147  51.1443546
  86.0343546  31.0617098  72.3905705  85.4206295  31.7442384  72.1190411
  85.6822295  30.7392223  73.2201737  85.7836540  43.0263369  53.9032731
  85.8661102  43.9076661  54.2675418  85.0438207  42.6412896  54.3729720
  11.0341401  54.3305125  84.6654348  10.3114029  54.0138403  84.1235847
  10.6124692  54.8635093  85.3394822  42.7156138  52.2361826  37.1067386
  42.3440791  51.3845629  36.8766566  43.1636566  52.0850700  37.9389972
   3.2074247  57.2111127  12.8018788   3.7519987  57.7575073  12.2352007
   3.5205861  57.3973978  13.6870114  60.7826135  28.7964305  61.1564495
  60.4084571  28.8194915  60.2757072  61.3799645  28.0486114  61.1434066
  78.6136741  53.4654278  45.6416418  78.3567174  53.6274993  46.5493521
  77.8148187  53.6155051  45.1361334  18.9688823   9.8457264  72.9170523
  19.1821565   8.9147938  72.8529399  18.9260448  10.1447353  72.0087625
  70.9657032  32.9447515  43.8832028  71.4016649  33.5944336  44.4346395
  70.8288908  33.3923700  43.0482467  73.2992728  56.7869985  80.8603648
  73.2440041  56.4198606  79.9781024  73.9315441  57.5015074  80.7832818
  39.8068689  32.2524017   8.7826061  39.7918130  31.5066708   9.3825148
  39.1179770  32.0616214   8.1460037  33.3350194  54.8895067  10.3947482
  33.6339992  55.7920892  10.5051470  32.8477174  54.8976866   9.5709146
  71.7032861  47.8189297  12.7999672  72.5109657  47.5057113  12.3928065
  71.5093477  47.1706765  13.4770104  81.6287399  46.2026466  58.3368002
  81.5850004  46.9217422  57.7065461  82.3023561  45.6189527  57.9878381
  83.6319728  70.7485809  76.3538498  84.1584619  71.4747803  76.6880287
  83.9379579  69.9854762  76.8440295  74.0865938  16.0338733  35.0971136
  73.4011768  16.6468221  35.3630630  74.2391631  15.4939603  35.8726447
  28.2242029  51.2772431  11.0266843  28.9226921  50.6441460  10.8607540
  27.4168749  50.7965263  10.8440243  68.0923772  64.9412399  71.9334225
  67.7275554  64.1697904  71.4998299  67.3930180  65.5933688  71.8903350
  29.0574215  69.6315125  51.0297904  28.2091990  70.0708776  51.0906903
  29.3296718  69.5092466  51.9392752  55.6181805  19.6061125  50.6829750
  55.4307822  18.7940726  50.2121195  55.8569038  20.2305702  49.9979235
  23.9653613  59.0285697   9.8568106  23.3224135  58.4262014  10.2309793
  23.7506293  59.8779191  10.2424627  57.5431664  11.9060783  73.2573073
  58.2664142  12.5280912  73.1782858  57.3650412  11.8639757  74.1968447
   3.3287590  40.5133556  78.1467848   4.0865573  40.9738005  77.7862794
   3.7052376  39.8305350  78.7019892  12.4021797  61.0389418   4.4721826
  12.7847485  61.7617927   4.9695352  12.5733928  61.2608878   3.5569461
  17.7173330   3.5571855  70.1374463  18.6660375   3.5423562  70.0110675
  17.4673647   2.6343412  70.1833384  73.2460588  53.6910045  83.9110208
  73.3559667  52.8709418  84.3923204  72.3693245  53.6304287  83.5316800
  19.3606057  64.7438368  80.2449127  20.2916928  64.9351214  80.1321352
  19.0803394  65.3259307  80.9512054  63.0448356  52.1891742   3.3922458
  62.7778318  51.2972361   3.1700131  62.8508466  52.2716433   4.3259476
  43.2448329   1.0664593  59.6657824  43.6444942   0.8654294  58.8195616
  43.8369823   0.6767029  60.3089627   0.5955500  35.5278436  51.4096087
   1.4746494  35.6018554  51.0382082   0.7398005  35.2394865  52.3108711
  46.7784198  39.3954489  56.6849812  47.0278491  39.1746491  55.7876160
  47.4808893  39.0331159  57.2248730  24.1504603  10.7785821  82.7956717
  24.6846546  11.3996848  82.3005963  24.5820338   9.9342269  82.6651328
  24.3631921  45.3840509  39.0509538  23.7426396  46.0609022  38.7807339
  25.2240807  45.7721820  38.8945671  81.1023167  20.7905209  58.4523070
  81.9520759  20.3573089  58.5327334  81.1715413  21.5603439  59.0169417
   0.0002164   2.9321429  10.1810745  -0.6624254   2.5230141  10.7376275
   0.8228412   2.8019018  10.6528346  68.3200885  16.8254058  72.5861516
  67.4943207  17.1189586  72.9710749  68.4283174  17.3706569  71.8069086
  54.9607642  31.2935033  33.4648056  54.1750214  30.7468971  33.4569501
  55.5786274  30.8167889  34.0190800  11.8751565  61.1294347  81.0378960
  12.2777065  61.9559924  80.7714608  12.5514262  60.6884718  81.5521361
  42.0032587  34.5164465  10.0313007  42.1102446  33.8491857   9.3534003
  42.1829292  34.0560313  10.8510373  55.6070320  10.2103505  41.1732665
  54.8383869   9.7434553  40.8455083  56.3022410   9.9927678  40.5523204
  24.9750085  12.6300280   9.7202193  24.2185516  12.2534169   9.2705875
  25.0856397  13.4930082   9.3211484  29.6663054  30.1951744   4.1184367
  28.9828552  30.5292358   3.5374628  30.0398846  30.9778094   4.5235944
  74.9155092  47.0153630  29.7974424  74.6771473  46.8251246  28.8901251
  75.6804338  47.5867539  29.7293640  55.4394662   3.5905447  24.8319483
  55.0915896   3.2709217  23.9994491  54.6997575   4.0354382  25.2456301
  74.9975545  19.1487096   9.8714792  75.4598942  18.7406264  10.6035598
  74.2206676  19.5425093  10.2684683   1.8209724  33.4942308  34.4212415
   1.0246674  33.3101440  34.9194806   1.5229357  33.5771778  33.5154127
   2.7158624  53.9351694  77.1857761   1.8475331  54.2417799  77.4469771
   3.1520427  54.7150544  76.8426172  63.1038798  68.9381093  12.6470754
  64.0441015  68.8018435  12.7638944  62.7812074  68.1032574  12.3077576
   1.1161222  17.2618714  40.2168019   1.0639644  18.2060680  40.3651397
   0.8259787  16.8733750  41.0421014  62.9299043  37.9764076  53.5639927
  62.7702148  38.5604190  54.3053844  62.6098390  37.1234597  53.8577100
  27.6075555  69.1067855  32.1743933  27.4772583  70.0121895  31.8924395
  26.9054897  68.9491159  32.8056427  56.5088846   5.8911017  29.4872353
  56.6867644   5.3485516  30.2554996  56.5211470   5.2775147  28.7526657
  30.0956766  54.1725808  56.0720881  30.1136357  54.9677939  56.6045780
  29.1650205  54.0036533  55.9252055  23.0696575  17.0243603  78.8808533
  22.6973128  17.8925431  79.0352874  23.5221969  17.1037469  78.0411286
  23.5744368  28.0352333   6.4042049  22.9458508  27.3150524   6.4537109
  23.2890105  28.6492066   7.0808144  34.4948926  71.2602774  13.4669574
  35.3341302  71.3472718  13.0149129  33.9241112  70.8284892  12.8313479
  33.5031425  17.7831983   7.5353157  32.7336971  18.2580251   7.2211101
  33.1445047  17.0525248   8.0390288  28.7545382  45.9667387  63.0529457
  28.8545234  45.0649601  62.7479371  28.7916269  46.4948174  62.2554565
  64.8245473   3.2035862  19.0586376  63.9373454   2.9259141  18.8305966
  64.9943642   2.7911141  19.9055501  39.1334450  50.4357779  52.6395946
  39.5668179  50.3964452  51.7870263  39.4909199  51.2210984  53.0539799
  66.5670163  49.8045429  20.4887990  66.6930418  49.6503986  19.5525357
  65.6555554  49.5613258  20.6510225  62.8397131  43.0609902  63.6788490
  63.3755657  42.4200893  63.2115806  62.5131948  42.5877516  64.4441351
  58.5229331  54.3105553  21.7124170  58.5093522  55.1764995  21.3047554
  58.9637084  53.7514955  21.0725725  72.0581594  32.0347823  80.9435144
  72.5745401  31.3202294  80.5706913  72.0464909  31.8565415  81.8839005
  84.0485106  45.4981934  19.1322852  84.9161009  45.5536151  19.5328440
  83.5185043  45.0246255  19.7734237  48.9494412  39.1683838  77.1616137
  48.0878323  39.3977480  76.8133983  49.5200923  39.1462598  76.3934343
  61.7423286  16.4247695   8.2657934  61.9843579  17.1606459   8.8280563
  62.3225802  15.7140137   8.5384948  52.1258871  26.7351886  61.5053045
  51.3616286  26.1715794  61.6256601  51.8183833  27.4362255  60.9306563
  48.4200600  49.8644727  34.8873408  47.9908549  50.7063361  34.7347605
  48.4754304  49.7930865  35.8402679  67.7625345  36.7133713   2.7182310
  68.2217129  37.4663334   3.0902996  67.1213928  36.4699150   3.3859871
  46.9375231  38.9390604  54.0492828  46.6761618  38.0824723  54.3871865
  47.1930405  38.7709445  53.1422658  67.8705592  13.8294386  58.1615894
  68.4318703  13.9449914  57.3949022  67.5968822  14.7167522  58.3939844
  80.0987622  69.3539666  45.8024861  79.5764970  69.4664120  46.5967322
  79.5593313  69.7285198  45.1060982  58.4944355  49.7335736  35.3812395
  58.3117255  50.2542183  36.1634019  59.1052385  49.0596065  35.6794341
  66.1788968  46.9564507  64.3670246  65.6725981  46.7890968  65.1619373
  66.2085844  46.1108340  63.9194949   8.3685736  49.4306397  64.8568030
   8.7673918  48.5730315  64.7095481   7.4268136  49.2594418  64.8601328
  57.7394721  30.3513057  86.3691437  57.9713354  31.1681707  86.8109615
  58.2872832  29.6880765  86.7889792   9.9729591  35.4222894   0.5282449
   9.1282151  35.5716641   0.1035962   9.9745714  36.0206223   1.2753907
  50.4110609  58.0804087  26.0811117  50.5720487  58.0937480  27.0245823
  49.8066158  58.8072769  25.9309764  50.8012042   8.6890932  43.5159993
  51.4081482   8.3408990  42.8628441  50.3016965   7.9269856  43.8091133
   5.3137567  55.8968220  79.0897561   6.1884563  55.7162845  78.7454617
   4.8470775  55.0652966  79.0060428  81.6906959  57.7287944  59.0738389
  80.9296878  57.6843719  59.6527387  82.1198869  58.5524984  59.3052229
  35.9828697  70.6068303  58.6251335  35.1211659  70.8866447  58.9340060
  35.9117033  70.6218861  57.6707015   4.8860500  42.7823229  16.4992384
   4.3151832  43.5162811  16.2719753   5.5819543  42.8078793  15.8425072
  15.9421776  23.8444400  83.8311017  15.9306137  24.5236055  83.1566891
  15.8676180  24.3245558  84.6558208  63.3776542  43.3927043  82.4924041
  64.0882687  43.4281246  81.8520884  62.7949492  44.1101378  82.2434546
  60.1279812  20.1056136  89.1410137  60.6068730  19.7385654  88.3979322
  59.2102076  19.9055702  88.9568776  23.7457356  26.5552393  23.4487124
  23.4373358  26.7629207  24.3307497  23.5288527  27.3302414  22.9304795
  70.2498655  22.2255520  37.2851030  70.2588576  21.4878752  37.8950079
  70.1493776  21.8222215  36.4228626  21.0832986  34.4925512   4.4046561
  21.2734011  35.4215174   4.5354791  20.3778202  34.4812206   3.7578148
  17.5940911   6.0811440  63.0467095  17.5399940   5.1367870  62.9000968
  18.5328941   6.2659949  63.0733712  57.6816221  12.3289250  41.0799943
  57.6022282  12.2475668  40.1295685  56.8832655  11.9268432  41.4223229
  34.9724440  70.5298841  31.8648789  34.1832389  71.0201121  31.6345232
  34.6492266  69.7674944  32.3450085  17.3425048  44.6191258  43.2498367
  17.3768495  45.4717060  42.8160635  16.4104853  44.4031115  43.2799933
  77.4665008  41.6672325  49.3895707  76.5648290  41.5191090  49.6746658
  77.8535540  40.7924581  49.3550547  26.0910967  21.9944209  78.0491724
  25.7612253  21.0988857  78.1228837  25.3036627  22.5365632  78.0016213
  45.7632229  43.7727789  22.3350964  45.6721775  43.9161637  23.2771067
  45.9388790  42.8355682  22.2513540  83.0632141  42.5551556  83.0422622
  83.6183835  42.2683015  82.3171874  83.4032406  43.4185220  83.2772350
  83.6557180  12.6637664  45.2753611  83.3038749  12.6990788  44.3858717
  84.5817182  12.4514607  45.1583916  75.9198087  31.6207842  65.4995165
  75.5735806  31.3548705  66.3513662  76.7678054  32.0175025  65.6988855
  14.7942997  50.4909060  65.8361131  15.3176941  49.7593168  66.1633244
  13.8913961  50.1754107  65.8743182  48.1395788  16.5257767  17.3739326
  48.1982814  15.7034242  17.8602682  47.3660734  16.4216295  16.8197895
  79.4699913  24.3431389  88.4425240  79.9717797  23.6412683  88.8570332
  78.9791775  24.7429142  89.1605166  11.1548754   1.1147721  19.6884951
  10.6204909   0.7288525  20.3825637  11.3287577   0.3893444  19.0887022
  78.2040012  15.9224766   7.8606343  77.3147317  16.2227785   8.0483851
  78.3804244  16.2360401   6.9736255  40.8828197  30.2697048  70.3624993
  40.8899305  31.0673126  69.8333460  41.4442565  29.6597802  69.8839467
  24.0989377  59.3252857  70.2150921  24.1423424  58.9148875  69.3514248
  23.3270293  59.8897855  70.1735095  71.7189017  26.3330823  47.8499976
  71.2145099  27.0763555  48.1807025  72.5744699  26.4180332  48.2707330
  16.2286942  47.0394948  14.3109838  15.4701874  47.4828255  14.6909273
  15.9332363  46.1405479  14.1666552   3.6061053  67.0826655  11.4410459
   3.0443956  67.5600925  12.0516011   4.4082265  67.6031009  11.3965434
  31.6749747  21.7707757  82.3780249  32.5271289  21.3354436  82.4014966
  31.7895814  22.5510019  82.9205599  26.6676576  58.3515986  57.0255900
  27.2672910  57.7216528  57.4253898  26.2797725  57.8789233  56.2891424
  23.0000375  42.8543949  52.6563275  22.0932436  42.5518238  52.7053920
  23.4637492  42.3279782  53.3075485  18.4095923   8.9666490  66.9848774
  17.8089930   8.3319234  66.5941913  17.9488489   9.8032191  66.9208626
  46.5050452  71.1647704  43.4072543  45.6137602  70.8569130  43.2427346
  46.7222692  71.6915851  42.6381562   8.2549479  60.1932099  38.4480432
   8.1835267  60.3270814  37.5029457   7.5218878  59.6169759  38.6643970
  32.3415537   7.5354620  87.9042887  32.1750956   6.6276059  88.1579042
  32.5607665   7.4878453  86.9737458  59.1723429   6.3297858  24.7655146
  58.9049820   6.8900618  24.0369264  58.7270090   5.4980297  24.6039865
  32.6635900  46.8734041  88.0800425  31.9908621  46.2736457  88.4024692
  32.2449548  47.3344336  87.3531118  46.0567222   4.3030165   9.0201623
  45.5371066   3.5236319   8.8232078  46.9445217   3.9713401   9.1544555
  48.7466823  36.8387079  46.0150439  48.0302905  36.5930649  45.4296602
  48.3998439  37.5717641  46.5235354  67.5660728  65.6991078  85.9194517
  66.8666450  66.3235868  85.7269461  67.9656888  65.5173538  85.0688611
  64.0729920  25.6833651   8.3378558  64.8178958  25.7309175   8.9370960
  64.2213917  26.3943399   7.7143783  81.2364074  53.0792312  39.7672573
  80.9665357  52.1969764  39.5122521  80.4154827  53.5405812  39.9389273
  76.4551565  24.7342496  72.7767129  76.4742833  24.1911944  73.5647212
  77.1239033  25.4018102  72.9295929  40.2925323  33.6436631   5.0235520
  41.0341464  33.6060492   4.4195440  40.3554203  34.5096818   5.4264025
  60.2740646  56.8060127  68.9118405  59.4891354  56.9238943  69.4468376
  60.4364457  57.6692027  68.5313577  72.6230496  32.0342977  83.5417616
  71.7961425  32.1135474  84.0173413  72.8603006  32.9352333  83.3220825
  16.4221712   4.3729737  66.0065107  16.1048429   4.6556225  66.8642078
  15.7592269   4.6856417  65.3909008  14.3764548  48.0823071  37.3551526
  14.4130118  49.0356471  37.2774467  13.4416938  47.8766469  37.3425986
  38.2609979  19.6178061   6.0415727  38.1028984  18.6796238   5.9364521
  37.6417116  19.8906834   6.7185176  15.2047657   0.4851684   1.1498916
  15.4143593   0.2267613   0.2523794  16.0519927   0.5160821   1.5942818
  26.5314170  49.4684274  30.0479559  26.8550278  48.6018210  29.8019860
  27.0431439  50.0757366  29.5135937  84.7671240  26.0740998  76.3491046
  85.4017101  25.3725869  76.2027764  84.9626841  26.7195052  75.6698108
  84.2033996  65.1461485   4.0942198  83.6491604  64.4762580   3.6938481
  83.7250820  65.9643368   3.9600105  33.6545858  54.1101144  53.9781650
  32.9662452  53.4527639  53.8766297  34.4680497  53.6057033  53.9869816
   4.6335857  17.3888862   5.9149705   4.0447566  17.5202469   6.6581101
   4.9402750  16.4870256   6.0088909  33.2064193  65.9867438  53.4551334
  32.6740040  66.1444317  52.6754538  32.6473805  65.4573469  54.0238568
  14.0078531  51.7428018  69.5435894  14.4266436  50.9601724  69.1853470
  13.7754949  52.2633718  68.7746626  80.9414020  53.3326292  57.3862674
  81.2550079  53.8968442  58.0930522  81.6721055  52.7396760  57.2110225
  77.7400918  20.9994817  23.2259539  78.0919112  21.4457036  23.9962402
  78.0121583  21.5450575  22.4880117  76.1212103  55.7113748  42.7845023
  75.8875807  56.5238599  42.3355957  77.0726200  55.6540810  42.6963609
  44.1091091  37.6634073  31.4871303  44.3775098  38.5651316  31.6634432
  44.4505529  37.1626651  32.2280117  15.0798036  59.8744472  12.4835064
  14.8955420  60.0934739  11.5701024  14.5739380  59.0781721  12.6456107
  10.7063576  61.1660403  85.2807263  11.0380441  61.5992767  86.0671881
   9.7773036  61.3950040  85.2549128  28.6234371  51.1789690  85.5433692
  29.4088910  50.7083778  85.8223639  28.7277987  52.0572809  85.9093045
  41.1107241  29.8761824  25.0522900  41.0436415  29.6833419  24.1171193
  41.0839446  29.0184082  25.4762454  25.0661104  15.2100606  19.4976705
  25.3231349  14.7519749  20.2978753  25.8790730  15.5951135  19.1704734
  15.2312327   1.6496905  12.8886990  16.0863907   2.0651758  12.7777549
  14.6220265   2.2298435  12.4320567  55.5825425  40.4980424   3.6329234
  56.0911639  40.0209634   4.2886151  55.1134745  39.8166484   3.1513536
  59.9939664  35.9382322  20.3089389  59.5736714  36.7230649  20.6605376
  59.3126086  35.2667167  20.3413490  57.6823023  66.1437506  39.7725800
  57.5388665  65.7917953  40.6510933  57.4519714  65.4236536  39.1855197
  38.3685562   2.0087502  79.0834239  37.8907493   1.5179905  79.7520698
  38.5409107   2.8590482  79.4877988  73.3297415  17.3648216  44.4951187
  73.3998771  18.3017951  44.3123797  72.5030115  17.1029942  44.0899078
  56.4242794  26.3150753   7.8385027  57.1288429  26.4024142   8.4805261
  55.6522226  26.6681656   8.2806422  46.0123441  54.8541129  55.3742011
  45.0789400  55.0597873  55.3223663  46.2183222  54.9093910  56.3073405
  35.5703460  41.7012594  69.0135338  34.8513573  42.3330726  69.0035660
  36.3234894  42.2004421  69.3294823  77.0058174  60.7155301   4.3603995
  77.0646257  59.8196250   4.6922540  77.4720411  60.6924909   3.5247341
  48.4222086  11.6260795  64.5051616  47.9071848  10.8381442  64.6787715
  48.5153134  12.0447361  65.3609010  51.9468599  27.0463651  36.0241208
  52.7162329  26.5687074  36.3341852  51.2075375  26.4815699  36.2491555
  84.1342264  14.2743549  80.9795076  84.7089643  13.6077272  81.3556934
  83.6283164  14.6017694  81.7232055  59.6291809  30.1385626  36.5120844
  60.3309370  30.3274860  37.1350436  59.1062628  29.4599018  36.9389427
  79.3701897  38.7620129  51.9258487  78.5898133  38.4713127  52.3977999
  79.0974150  38.7942623  51.0089050  68.0401043  14.2749867  43.7843860
  68.7987555  14.2283927  43.2025705  67.3256068  14.5753974  43.2227113
  81.2521746  12.5555262  46.5483128  81.9580400  12.6692139  45.9118687
  81.2822935  13.3484995  47.0835865  79.0090358  64.7634160  22.0509646
  79.9155678  64.6771903  21.7560124  78.5246255  65.0169791  21.2652902
  12.6975569  55.0466971   1.7179218  12.1321228  55.8080540   1.8477362
  13.3641318  55.3460423   1.0996159  44.1357972  37.5260546  55.8022542
  44.2472701  36.8923928  55.0935382  44.9466770  37.4656552  56.3072866
  33.3754367  10.8994722  86.0755415  33.8947701  10.8231337  85.2751059
  32.8189011  10.1206912  86.0751468  81.1888968  42.3748440  35.0950682
  81.4658238  41.6235471  35.6195643  81.4433726  42.1491663  34.2003373
   4.3516357  22.3076011  19.4453406   3.7988743  21.9289596  20.1289466
   4.1058565  23.2324510  19.4234987  63.5493907  15.6502885  78.6214611
  63.1531055  15.3565610  77.8011478  63.0184087  15.2403075  79.3042535
  66.0964319  23.5445453  58.7399975  67.0419553  23.4342887  58.6396936
  65.7176274  23.0107957  58.0415347  69.5999538  49.9860305  27.0508730
  69.2128939  49.2317891  26.6064224  68.9305226  50.6677370  26.9928224
  24.2392553  58.1879352   5.8109777  23.3653222  58.2721240   6.1922716
  24.3071496  58.9239726   5.2028074  65.1335215   8.2954443   5.2488513
  64.9030398   8.1492410   6.1663122  64.5125796   7.7578195   4.7573001
  43.5936008  40.4490544   7.2393980  42.6804908  40.5484671   7.5088032
  43.7040567  41.0814755   6.5294157  78.7503675  16.6392871  82.4605213
  78.0835688  15.9798512  82.6522388  79.1011190  16.3841992  81.6072128
  13.5421042  25.8526132  57.1461794  13.2607499  26.7472784  56.9547484
  13.8516056  25.8873591  58.0512945  25.9869169  69.3033710   7.6259617
  25.3418802  68.6836108   7.2852907  26.7711367  69.1461296   7.1001230
  38.8927378  45.3102635  55.6503017  39.4031674  44.8680836  54.9719431
  39.0246905  46.2428421  55.4796630  61.3153934  27.8501262  14.6355971
  61.9541021  28.3446170  14.1220196  60.5860605  27.7030655  14.0333690
  78.5108631  51.1458405  27.9092909  77.6495117  50.7631308  28.0761407
  78.4242139  51.5670870  27.0541446  74.3607849  58.5953622  50.4106318
  74.6834786  57.8886384  49.8514877  74.8639556  58.5089131  51.2203092
  58.1350078  47.6559510  65.4974648  58.2758948  46.7364687  65.7231525
  58.9667870  47.9396255  65.1181180  49.2390200  30.9353761  78.1728618
  48.7290826  31.6404459  78.5717004  50.0356802  30.8874609  78.7013205
  12.5836947  16.7560271   3.5545032  12.8236965  15.8299794   3.5218444
  12.6519132  17.0532743   2.6471873  69.6052389  41.0538244  55.6602870
  69.4314952  41.9661097  55.4283809  69.3093093  40.5529382  54.9001748
  66.8170468  37.3325828  60.2153696  66.1231149  37.9556606  60.4309258
  67.1883789  37.6614135  59.3967032  80.4663787   0.9930017  47.1066215
  80.5865227   0.2467692  47.6939326  79.5914945   1.3218905  47.3131202
  29.7832909  46.2634298  51.6372340  30.4437446  46.5000645  50.9860530
  30.2302605  45.6489281  52.2193317  73.9916391  28.2414626  82.1606938
  73.6532630  28.4204734  83.0380128  74.8814534  27.9208867  82.3079810
  47.2910358  61.4843154  38.0232917  47.3998013  62.4264351  37.8936291
  46.3665899  61.3218590  37.8355698   0.0592075  47.2141628  36.1671494
   0.9903602  47.1918291  35.9464965  -0.3231625  47.8189608  35.5313473
  24.2586767  39.6513777  88.9277182  24.6499860  38.9580126  88.3963485
  23.4909880  39.9309680  88.4290046  57.9600131  52.5385687  16.0667311
  58.5397887  53.0609643  16.6209828  58.0599708  52.9160071  15.1927857
  83.0076288  37.0458609  57.3263109  82.2418744  37.0814660  57.8995337
  82.6839387  36.6467526  56.5187410  48.2392779  68.9478151   0.2381152
  48.9074038  69.2582464  -0.3730083  48.5181136  69.2850839   1.0894273
  53.8247539  28.7084146  79.6959905  54.1543268  27.8180993  79.5737108
  54.1524162  28.9689866  80.5567875  46.1925429  17.6069945  19.8546184
  46.1055483  17.1408179  20.6860890  46.8078987  17.0781622  19.3467746
  83.5216949  49.5261340  41.7528438  83.9610823  49.1904688  42.5341884
  83.7980875  48.9369761  41.0508951  81.0873610   3.0900449  20.3329458
  80.1677511   3.2595188  20.1284268  81.4264072   3.9346956  20.6293322
  25.0691170   2.5610699  18.0151849  24.2422020   2.2268248  17.6677320
  25.2604949   1.9956633  18.7634641  65.8491232  11.8149248   7.4160466
  66.0559531  10.9263257   7.1264865  65.8969460  12.3436116   6.6195323
  35.6716908  43.6589772  35.5278184  35.9656829  43.8163177  36.4250611
  34.9050291  43.0937574  35.6226243  32.3316833  23.9332286   9.2847227
  31.4095419  24.1864443   9.3267797  32.7542985  24.6463707   8.8061240
  47.9040957  42.3073691  30.5747653  48.6458609  42.5857794  30.0376397
  47.2615756  41.9806785  29.9449455  43.4751730   4.6824816  24.3729625
  44.1414950   4.8523848  23.7070948  42.6671300   5.0328449  23.9980707
  69.1303928   3.6193110  65.2185758  68.4246367   4.2387116  65.0328796
  68.7440188   2.7593297  65.0531091  42.0143699  50.6200625  57.6197814
  41.2930792  49.9963983  57.7035340  41.6006965  51.4783887  57.7113361
  66.9174073  38.7437937  15.8339227  66.0830390  38.2853211  15.7346035
  66.9052892  39.4139385  15.1505554  70.4674617  63.8213444  16.3994176
  70.8273689  62.9820794  16.1124805  70.1708115  63.6610194  17.2952559
  19.9745892   9.1690746   4.2931070  20.8246254   9.0402552   4.7139109
  19.8291438  10.1143815   4.3314788  38.6702103  18.1251148  71.8827571
  39.1239862  18.1952997  71.0428801  37.7413941  18.1052711  71.6522393
  79.5478059  16.0993036  10.1139479  79.2706243  16.8782956  10.5962067
  78.9478177  16.0523159   9.3696104  54.5684592  35.2883753   2.9315230
  54.8899402  35.6852167   3.7410900  54.6535613  34.3460468   3.0764592
  16.0087659  24.4898015   2.8918739  15.6272149  24.2030326   2.0621665
  15.5029185  25.2659630   3.1325470  60.1728272  46.5648220  53.6843608
  59.9830901  46.8854788  54.5660699  59.5386633  47.0131453  53.1248304
  82.6291957  13.9389788  32.5479942  82.8462219  14.7437397  33.0186228
  83.3689770  13.8004562  31.9565832  21.7166444  16.2639146  20.2074520
  21.0970359  15.6892460  19.7579265  21.4897945  17.1435150  19.9056671
   9.8425748  60.9800823  88.7479803   9.0398824  61.1185167  88.2452353
  10.4291206  61.6796082  88.4601271   4.1758572  14.0740301  87.5354035
   4.9898405  13.6258370  87.3056514   4.4403899  14.9776791  87.7076612
  78.5381138  29.9060090  74.7959233  78.6868083  30.7370230  75.2470746
  78.8006351  29.2388506  75.4301268  81.5300591   7.3920097  32.0457118
  81.8864302   6.7274944  32.6353311  81.6990332   8.2224692  32.4907022
  53.0335770  66.6805268  42.7663648  53.3731763  65.8519698  42.4281381
  53.3177585  66.7006705  43.6801848  15.7625491  28.0757198  12.1762769
  15.1568376  27.3660097  11.9626019  15.1977969  28.8298327  12.3453936
  63.7303477  13.5012199  24.6682495  63.6315896  12.9443515  23.8959955
  63.8477240  14.3828297  24.3143868  58.2272043   3.0280141   9.9473661
  57.9887161   2.7036129  10.8157664  58.1994234   2.2530378   9.3862317
  81.4739303  22.5037135  23.5085363  81.7783462  21.7300025  23.9828083
  80.9632861  22.9940310  24.1527902  61.5160964  17.6504042  49.5629342
  60.8261282  16.9877839  49.5296176  61.1803052  18.3158496  50.1634828
   1.7044930  67.5368852  33.8101817   1.7787330  67.2825602  34.7299855
   2.2346397  68.3305519  33.7375907  50.0289733  40.3008238  19.2234721
  49.3279437  39.8399494  18.7626206  50.3621600  40.9306263  18.5842794
  47.7523912  28.4740481  20.1103136  48.4853409  28.8151508  19.5978045
  47.7338118  29.0213937  20.8953610  57.2597392  69.1068628  30.3363799
  56.8631499  69.6302206  29.6399278  58.1221298  68.8691035  29.9958146
  43.6055211  49.7653626  77.5296238  44.3167044  49.3602162  77.0333311
  43.3905252  50.5573645  77.0369355  51.2854395   2.7490813  10.9031396
  52.1449546   2.3363049  10.9872902  51.4092416   3.4268102  10.2386184
  33.9878331  48.7864620  32.2660701  34.7760288  48.7785825  32.8091331
  33.6532993  49.6800452  32.3424120   5.0621969  64.6425521  71.5815661
   5.2902624  65.5403092  71.8229168   4.2284489  64.4803372  72.0229077
  74.5666002  21.3436148  31.2326512  74.7614011  20.4071011  31.1976278
  74.1433803  21.4686188  32.0820573  80.9556565  16.1617027  85.0178326
  81.2911798  16.8552076  85.5859055  80.5752545  16.6259513  84.2721790
  32.9242213  18.3773222  14.0261139  33.3902103  17.9146157  13.3297025
  33.4515147  18.2238612  14.8101058   9.3810012  51.8877492  70.8657187
   9.4638310  51.0217348  71.2649557   8.6955600  51.7827365  70.2058895
  69.6090279   9.3327792  15.5781092  69.1518138   8.6653410  16.0896883
  68.9105515   9.8185709  15.1395104  49.6004022  23.0506945  12.0168078
  50.4257700  23.3290611  11.6199301  48.9270943  23.5165959  11.5210012
  20.7673113  71.3986259  10.3359380  20.9768116  71.4484329   9.4032747
  21.4937688  71.8470172  10.7688775  71.2206730  19.9040384   3.2658505
  70.3324417  19.8278633   3.6143820  71.1452142  19.6222870   2.3541740
  29.9849656  24.1753768  40.5153662  30.5252027  24.4141927  41.2685877
  30.2322826  23.2715123  40.3201868  34.8635679  46.3746461  15.6115434
  34.1813785  46.9534788  15.9518406  35.6626296  46.9005789  15.6451128
  17.5363699  63.1206499  40.2546470  17.7866963  63.5474987  41.0740178
  18.1350882  63.4844540  39.6024087  51.3155271   4.7927177   4.4286987
  50.9477782   4.4476628   5.2422894  51.9073428   5.4903509   4.7102907
  25.4078164  25.3378694  88.5763380  25.2162636  24.6675202  87.9204636
  25.3008526  24.8895980  89.4152917  44.5765567  32.7057890  81.3905001
  43.7991473  33.0200131  81.8521597  45.3098293  33.1139456  81.8508818
  66.8138754  23.4619999  62.7563185  66.5870777  24.1356554  63.3973980
  66.0235717  23.3603552  62.2259222  41.4687194  53.5331517   9.7597274
  41.6939091  53.9106011   8.9094020  41.5821735  52.5901679   9.6408090
  32.8982591  57.0844419  40.8696456  32.3662224  57.8795915  40.8395484
  33.6732694  57.3337349  41.3730777  46.6414566  22.4357302  82.8444065
  47.5605289  22.3869460  83.1073857  46.1593089  22.4970438  83.6690313
  74.6089812  61.2464887  82.7665033  74.3780904  61.3011958  83.6938266
  75.5582994  61.3677420  82.7484889  20.7756797  28.8171239  87.1783776
  20.5928279  29.1625628  88.0521448  21.3415409  28.0608192  87.3334134
  15.8010188  37.1467654  34.2894696  15.5972267  36.3346653  33.8255794
  15.7557822  36.9111083  35.2161040   6.0642157  48.3501651  68.6751008
   6.5872752  49.0581735  68.2991157   6.7030520  47.6736117  68.8995900
  36.2553204  16.6845845  84.6792660  35.3471975  16.8305706  84.9442806
  36.1918739  16.3277486  83.7933345  69.4897680  25.7362049  44.3150842
  68.7272885  25.3822951  44.7729103  69.1236923  26.1929122  43.5576947
  12.7608522  69.8769751  68.8731895  13.2075331  70.7014432  69.0654403
  11.8599808  70.0192246  69.1637540  60.6276066   2.5182328  49.2081762
  59.8582240   2.8584367  48.7515105  61.1631082   3.2918261  49.3843107
   2.4591286   6.4703076  69.2506993   1.5957799   6.3465962  68.8562928
   2.3027941   6.4099743  70.1931171  48.8671952  39.7542075  62.6282107
  49.5814259  39.7071167  61.9926883  49.2596830  40.1626939  63.3997831
  76.9627451  71.3283658  68.0078524  77.0077351  71.4207806  67.0561869
  76.1580291  71.7839992  68.2549600  39.0301206  42.4174461  25.2869834
  39.3510138  41.5410127  25.4994072  38.7625502  42.7852026  26.1292381
  33.7447391  70.1378493  77.9319250  32.9051404  70.5937727  77.8732760
  34.3125514  70.6014653  77.3163917  33.8033144  51.0956996  75.8055632
  33.2273994  50.3950707  75.4995030  33.6619852  51.1257443  76.7517953
  12.5951002  62.2591741  35.2577999  12.9045915  63.1565669  35.3808165
  11.6827763  62.3557732  34.9847330   7.6821110   1.9277112  81.3333685
   6.7534402   2.0228127  81.5449296   8.1060459   1.7772074  82.1782707
  25.4666470  34.5184602  86.0246828  25.5282644  35.4631487  86.1660997
  24.9801002  34.1940698  86.7824921  59.5057656  54.4432947  17.6659459
  60.3413442  54.7707540  17.3330636  59.7487695  53.7984923  18.3303335
  50.7692507  51.4413389  30.6924084  50.0311364  51.8501993  30.2404657
  50.4321203  51.2358496  31.5643884  39.8088179  45.4320935  18.3135779
  40.6742858  45.0243172  18.3438354  39.4804113  45.2322567  17.4369673
   7.5897302  40.3242238  63.7734150   7.5551041  41.2339228  64.0691861
   7.9716783  39.8472040  64.5101643  78.2680087  40.4452234  44.2159919
  77.5960220  40.5716279  43.5461505  78.8448535  39.7732555  43.8527550
  67.2415591  63.3678449  67.9944867  67.1499176  62.8141990  67.2190450
  68.1273674  63.1914136  68.3114213  64.0064378  44.4584632   7.2983045
  64.2627034  45.3781687   7.3668728  63.0667163  44.4844661   7.1180846
  43.1203780  49.3687126  24.9498371  43.1613238  48.4447157  25.1963832
  42.3732977  49.4247538  24.3540501   4.4406162  55.3141506   9.8370306
   5.3222435  55.2541908  10.2049571   4.4783660  54.7887128   9.0378298
  40.0090339   1.9243244  49.2099653  40.5324540   1.1715391  49.4848788
  40.6461978   2.5390121  48.8460791  66.6804950  40.6605733  31.2568314
  66.5519245  41.1525273  30.4458550  66.1612325  39.8650958  31.1392992
  81.2954985  31.2858295  64.9061627  81.5892111  32.1154362  65.2826166
  81.7526372  30.6165552  65.4154053  42.9811905  31.9035237  66.7102566
  42.0265825  31.9738981  66.7119630  43.1519444  30.9634043  66.6532439
  83.1122746  54.1888967  10.8464957  83.6390630  53.6436201  10.2622020
  82.4675762  53.5873606  11.2189874  40.5842841  42.2920541  20.2187399
  41.5105141  42.3699398  20.4473522  40.1777234  43.0714293  20.5975731
  51.5274575  41.0755322   9.0344058  51.2519482  41.8442489   8.5350049
  52.4830424  41.0840995   8.9794877  79.4360593  20.9360974  28.2891684
  79.1645564  20.5113109  29.1028480  79.1082060  20.3610046  27.5977840
  44.7983149  34.6787099  40.3143013  44.1936155  34.8380040  41.0390052
  44.6686118  33.7566649  40.0923959  78.2457166  35.7024908  31.0746779
  78.5349967  35.5793169  30.1705888  77.2909356  35.6514702  31.0297110
  40.2529804  50.3401516  36.9485055  39.5132886  49.8422226  36.6004326
  39.9938283  50.5600359  37.8433368  72.1718419  62.9252620  23.8316258
  71.9913061  61.9909134  23.7285165  72.3572018  63.0318542  24.7646379
  83.0793054  26.2207483   1.7783122  82.3222244  26.7523115   2.0242811
  83.8340997  26.7812762   1.9581063  81.1291250  38.5787228  67.4821153
  80.3748713  38.6811506  68.0624960  81.7567592  38.0675235  67.9929797
  66.5988236  11.5379872  83.6405914  66.4230415  11.2632901  82.7406613
  67.5537265  11.5460004  83.7063794  33.0427519  19.9512050  70.0909907
  32.8960333  19.1136708  69.6513978  32.1703985  20.2334965  70.3658413
  38.7304981  54.8250354  83.9906578  38.8779862  54.4549873  84.8610275
  37.7902704  55.0021686  83.9618879  57.7412990  17.4397669  74.1965834
  58.5705111  16.9968416  74.3767400  57.8402368  18.3045642  74.5947904
  31.1571223   0.3127658  16.5422287  31.1840198   0.0597535  17.4649926
  30.3194755   0.7650667  16.4422114   4.7970909  66.7546916  31.9472094
   4.6867968  66.0702004  31.2872557   5.6002923  66.5147031  32.4092755
  38.2572518  66.3290369  11.7836413  39.0421487  65.8568653  11.5057519
  37.7112317  65.6620128  12.1997817  31.3064525  52.7114508  69.3103364
  31.0670299  53.0764911  70.1621898  30.5707373  52.1453021  69.0770329
  52.6791545   5.1072359  72.7416450  52.8618910   5.7247598  73.4498140
  52.3502366   4.3251353  73.1847743  52.0078696  23.3857440  10.1120352
  52.6358482  22.6935691   9.9052299  51.2352427  23.1723087   9.5888480
  68.2841805  14.7399289  81.5405924  68.9679528  14.1457237  81.2313880
  68.3456938  15.4985782  80.9601621  72.8784523  39.6824133  24.4750622
  72.7759613  38.9605588  23.8548578  72.1940313  39.5361455  25.1280594
  14.1694885  49.9233755  52.5769921  13.8016166  50.0575099  51.7035448
  14.9512435  50.4754324  52.5949952  50.4854524  10.3499969  62.9309462
  50.2204483  11.1366110  63.4076462  50.0019326   9.6398637  63.3530260
  60.4091337  42.2419736  10.0538573  60.8073423  41.3946486   9.8546036
  61.1410007  42.7897569  10.3376459  77.3981711   3.4917656   7.6427840
  78.1870883   3.7138601   8.1372692  76.9248054   4.3198375   7.5624489
  20.1138072  12.4554251   3.8940061  20.2075029  13.2606176   3.3849697
  21.0080533  12.1282085   3.9913966   3.0467298  19.3712516  33.4463944
   2.8443149  20.1179802  34.0100047   2.9246635  18.6065146  34.0089858
  77.2545469  50.1758185  39.4828237  77.8261324  50.3084784  38.7265677
  77.3194413  49.2394991  39.6707776  78.0200784   7.2063084  79.2784847
  78.1410768   7.8751715  78.6045312  78.2954009   6.3911293  78.8590655
  42.1712509  43.1658931  13.6637162  42.5823357  42.5020708  13.1100185
  41.7300217  42.6654886  14.3501154  66.2008682  46.4342611  34.1254292
  65.7562612  46.9978673  33.4922590  65.5651826  46.3195970  34.8318198
  30.6156015  10.8120672   9.2817317  31.5067502  11.1522692   9.2020550
  30.4739783  10.3197735   8.4731393  55.0764313   7.1418978  78.5085780
  55.3939904   6.9390817  77.6286611  55.2433351   6.3456324  79.0128959
  45.8696248  45.5219567  20.3635921  45.6690393  44.8281887  20.9918302
  46.0353949  45.0602073  19.5416799  44.2735398  65.5300975   2.7621224
  44.1511234  65.2210475   1.8644954  43.4081780  65.8404554   3.0286909
  44.7779354  31.3631266  12.9006006  45.1499738  30.6278747  13.3876570
  45.3611058  32.0974065  13.0928951  54.3854393  48.5161755  68.8974858
  54.4251234  48.6851042  67.9561462  53.4500579  48.5107152  69.1006202
  63.9492238  48.7165810  49.9353384  63.8229041  47.9509183  49.3749494
  63.5486895  48.4715852  50.7694734  24.5998329  63.9704841  37.4159449
  24.8144772  64.7438200  36.8943020  23.6757501  64.0813582  37.6395738
  25.9409798  11.0768788  39.0335728  26.6995463  11.2750011  38.4844315
  25.7501764  11.8994904  39.4842789  58.6357762  50.0891732  76.5323836
  58.0804861  49.6709678  75.8743647  59.4503467  49.5868617  76.5126382
  17.9121318  68.4890114  80.0538182  18.6301887  67.9214570  79.7736252
  18.2334817  69.3769220  79.8970354   2.7133663  27.9033968  20.9498111
   3.3327328  27.6528810  21.6352736   1.9979351  27.2727233  21.0313033
  75.6915210  40.0847128  42.5147162  75.0161814  40.2167476  41.8493478
  75.5988890  39.1671867  42.7712256  84.9679841  39.7940336  84.1163421
  85.4267221  39.0216308  83.7859103  84.6519555  40.2394496  83.3302363
   2.1136356  58.8128331  38.5343912   2.0614449  59.1239914  37.6306830
   2.9702837  59.1101421  38.8409743  69.5047583  48.8874512  49.5611609
  68.6118747  48.6133893  49.3516834  69.5337840  49.8134270  49.3204161
   3.5492448  30.3393009  20.9861856   3.2696393  29.4305829  20.8753514
   4.1509456  30.3157007  21.7302495  51.4440307  61.0805896  69.0590720
  52.0076108  60.5961853  68.4557795  51.0422120  60.4054341  69.6058248
  54.7376053  68.9647030  56.4873578  55.0464235  69.8523864  56.3060255
  55.2260374  68.4119073  55.8773719  83.7555764   8.4950098  26.9571785
  83.0781035   8.3428377  27.6160457  84.5698058   8.5448683  27.4579544
   7.6992497  23.4074066  82.3660846   8.1963643  23.4321507  83.1837011
   6.9523034  23.9852357  82.5223429  82.9376305  71.4999241   8.9322438
  83.0874533  71.2126825   9.8329531  83.3492028  70.8240411   8.3937068
  41.3606936   4.8568000  49.6435669  42.0683770   5.4571207  49.8781542
  40.9322267   4.6549522  50.4753755  43.6738078  64.1359263  48.0832587
  44.3159113  64.8198119  48.2736147  44.1772161  63.3220758  48.1046912
  43.7484121   4.2674703  60.9173303  44.5617438   3.9347436  60.5378355
  44.0051348   5.0738236  61.3646778  85.7474983  43.8258303  24.2583894
  86.0614549  43.2072623  24.9179625  85.8986896  43.3828821  23.4234224
   4.5005091  33.5854385  44.1373878   4.0447388  32.7728781  44.3570486
   4.2859732  34.1818289  44.8546916  29.7036401  40.0899323  52.8834574
  29.0539886  40.0343885  52.1826723  29.2233616  39.8472317  53.6750765
  36.8998204  63.5254631  60.8082634  36.8789870  62.7142333  61.3159090
  36.5063045  63.2920469  59.9674935  77.8910843   2.5062656  81.5535000
  77.3833755   3.3047731  81.6978927  78.6877643   2.6325095  82.0688594
  67.6430057  62.8889736  52.2180885  67.6552164  62.6201851  53.1366937
  68.5419764  62.7556800  51.9175618  20.3323324  34.5205065  85.2294493
  20.4984301  33.7031344  84.7598257  19.8001467  34.2607667  85.9814768
  11.3245925  43.0614733   6.5186980  10.4121957  43.2837626   6.3333564
  11.8023594  43.8801674   6.3856172  12.9130494   5.8549061   7.0919898
  12.3026064   5.5544909   6.4186831  13.7488932   5.4539616   6.8535776
  24.1472639  57.9000640  77.9024285  24.9034342  57.7725754  78.4753029
  24.1570643  57.1403410  77.3202285  36.0478409  23.8549659  85.8770486
  35.1843098  23.6440496  86.2320982  36.1014245  24.8092756  85.9285623
  22.6966162  45.0730464  11.4823259  22.2590112  44.2252980  11.4045039
  23.6254749  44.8565576  11.5634799  71.4380927  11.4417882  15.2435716
  70.8943925  12.0216815  14.7103310  70.8837364  10.6793118  15.4095554
  63.5067468   0.8876519  30.5879515  64.1204941   1.6213514  30.6230398
  62.6530830   1.2805778  30.7698836  27.2719703  48.3189806  77.8004404
  27.5760574  47.6056440  78.3616122  26.8002430  47.8816501  77.0916053
  41.2435730  22.6205964  17.1032794  40.7104084  23.3708691  16.8404901
  41.5361820  22.2339029  16.2780037  28.5342104  50.9888073  51.7007009
  28.1313243  50.1932643  51.3528130  29.3300856  50.6835161  52.1361453
  78.1729757  19.7303574  77.9251570  77.8313648  20.0164636  78.7723152
  77.6111545  20.1626844  77.2819757  57.0863558  47.3238171  74.1318216
  56.5347208  48.1060765  74.1309573  57.3480163  47.2142502  73.2176221
  48.0284954  65.7805592  61.3166908  47.1512604  65.9669402  61.6512842
  47.8824526  65.1904435  60.5773216  80.4038994  35.7056229  52.4590464
  80.8307117  35.8092535  51.6085619  81.1196781  35.5113476  53.0641496
  81.6882674  25.6052648  28.6140662  81.9135485  26.5354969  28.6262555
  82.5218926  25.1588694  28.4656344  51.6378830  41.1716563  67.3106977
  52.5428484  41.2020817  67.0003048  51.5902808  41.8565818  67.9776632
  35.4862443  63.8545993  38.8752773  34.8650512  63.2978578  38.4058202
  36.1306605  63.2446325  39.2343039  79.3069221  17.1793067  79.4777903
  79.4915127  18.0935155  79.2624292  80.1543827  16.7402767  79.4050232
  20.1584300  53.9287579   1.8695584  19.9955211  54.5024051   1.1208118
  20.4262939  54.5216244   2.5716910  16.9551661  31.3135420   7.1529745
  17.8040065  31.7103406   7.3485574  16.6040816  31.0652911   8.0081605
  45.6846909  55.9057794  17.1241606  45.4331365  55.5167789  17.9617947
  45.0531605  56.6122518  16.9888905  28.2244504  26.1591862   7.6977444
  28.9846281  26.5720433   7.2879753  27.5166238  26.2787282   7.0645596
  47.9189838  15.9534734   2.1280296  47.9559472  15.0070412   2.2663469
  48.7431134  16.1637192   1.6888953  59.0257781  35.5452899  88.4233199
  59.0039828  34.9357769  87.6855864  59.4864212  35.0689182  89.1140511
  82.5247399  58.6047063  35.0318315  82.0460868  57.9570179  35.5491541
  82.4953164  59.4023751  35.5601218  68.4908561  34.1841788  81.7714259
  67.6919237  34.5103066  82.1856473  69.1751514  34.7862774  82.0637427
  78.7918257  62.0417605  50.4057935  79.4275397  62.6598161  50.0450902
  77.9687894  62.2630756  49.9700611   3.3659114  46.0254351   0.5604529
   2.7261134  46.7287118   0.4495823   2.8951232  45.3475945   1.0453471
  50.6424782  52.5049469  45.7444535  51.0937646  52.5534725  44.9017093
  49.8331608  52.9984723  45.6115250   3.5381998  24.0191878  66.2493410
   2.8332430  24.6663084  66.2269195   4.3365712  24.5380356  66.3474824
  75.8288907  40.3462038  72.8981670  75.8079176  39.5619841  72.3497224
  75.4952370  41.0428388  72.3328292  72.2318973  36.7982097  18.7854033
  72.5440038  36.1397920  18.1646719  72.3177583  36.3796104  19.6419278
  78.8614320  57.6107288  84.1383876  78.3237249  57.6403027  83.3470417
  79.5394507  58.2703549  83.9920456  50.2229459  12.9771891  72.3595869
  50.1602473  12.3383202  73.0696202  49.6704647  13.7055545  72.6432771
  17.5379955  15.3152850  17.0220460  16.8817670  16.0028203  16.9085070
  17.0728678  14.6129468  17.4765888  84.4494449  14.1471822  12.6432558
  85.0513546  13.7734492  13.2868863  84.3147634  15.0484079  12.9363172
  80.5669764  22.2164216  44.9753639  79.6117874  22.1545768  44.9799513
  80.7531338  23.0762442  45.3525671  79.0941651  11.3963042  18.0294200
  78.2353782  11.5906183  17.6539750  79.7115618  11.5742146  17.3199124
  71.9766865  36.0854902  12.4363772  71.2179328  35.5312746  12.6190508
  72.7292936  35.5549814  12.6978628  -0.1139633  27.1008501  45.6576467
  -0.5381060  26.4549905  46.2226247   0.8207168  26.9093214  45.7345991
  44.8271310  31.5265523  78.8927171  44.6732413  32.0970898  79.6457355
  43.9818427  31.4872281  78.4453099  35.4924871   4.3610663   5.2810762
  35.0165028   4.9888063   4.7373729  36.3774499   4.3510374   4.9164228
  25.4878164   8.2153884  83.6528972  26.1245402   8.2640628  82.9398436
  25.7461470   7.4406732  84.1522103  32.9989762  20.4903889  87.7377659
  32.6913434  19.5846371  87.7725162  32.2448983  21.0102900  88.0157968
  56.4533845  26.5229014  76.5056214  56.3764243  25.5692538  76.4762051
  57.3690810  26.6823531  76.7343283  44.9104411  12.0675959  62.9226843
  44.1967725  11.7015485  62.4002684  44.4794084  12.6722810  63.5266699
  44.0353844  28.6205286   0.7558556  43.8046230  28.1480666   1.5557060
  43.6367986  28.1087861   0.0519517  33.3620015  49.9901287  80.8765012
  33.7123491  50.1193348  81.7578605  32.4143490  49.9377263  81.0007613
  33.7047165  64.4514723   8.8011263  33.5215207  64.0848538   7.9361049
  33.2602069  65.2992005   8.8010108  62.9789177  64.4304119   2.3900885
  62.0999170  64.0723349   2.5140660  63.2639825  64.6756622   3.2703283
  32.2008978  67.3008859  47.0562019  31.5815106  67.3975398  47.7795617
  31.7469649  67.6742244  46.3006920  77.3908605  60.4392085  79.9927109
  78.1993329  59.9267642  79.9904878  76.9173152  60.1428648  79.2154291
  44.2727449  65.3416773  73.2289550  44.7598517  65.2367207  72.4116773
  44.7751382  64.8426307  73.8729933   6.2470930  49.8898516  31.5215969
   6.9140512  49.4602077  32.0571385   6.1978026  50.7803137  31.8692741
  22.4558343  65.1045419  58.1022216  21.8826889  64.6220037  57.5064925
  22.3775141  64.6423599  58.9367787  64.4294026   6.6812571  78.8234888
  64.1033494   6.4178199  77.9629529  65.0749577   6.0118694  79.0502278
  32.1367737  14.5589708  77.6559111  31.9965054  14.4958125  78.6006691
  32.1253606  15.4987294  77.4743747  24.6213681  23.4278610  83.4546966
  24.2014264  24.2761829  83.5969315  24.1326027  23.0371021  82.7303709
  25.5761805   9.2382743  75.1015762  24.6345908   9.2008308  75.2696198
  25.6644345   9.0000372  74.1787078  30.8482127  61.7621668  29.8044151
  30.1529816  62.4172156  29.7427985  30.4097762  60.9778883  30.1344342
  82.7415630  60.9780031  65.8924883  81.8091495  60.9736779  66.1088638
  82.7788656  61.3234861  65.0005904  79.1407595  58.1105528  27.4166443
  79.0767400  57.4594708  26.7179129  80.0227140  58.4717015  27.3274269
  76.0342394  26.6931679  47.7277968  75.9726671  27.5996423  47.4265581
  75.1996100  26.5294928  48.1669280  46.2171596  60.9171779  10.4637736
  45.4463387  61.4815893  10.5229908  46.9268645  61.5069294  10.2093250
  66.0392590  39.1258132  80.2122445  65.2679237  39.4826349  79.7718447
  66.2372943  39.7608744  80.9005112  18.3369292  57.5049075  72.4365141
  18.9745060  57.7413382  71.7628465  17.7972137  58.2884976  72.5410394
  68.2429285   7.7518033  42.3600984  68.2655957   8.1201511  41.4769008
  68.1860915   6.8060649  42.2237887   5.2439498  64.3479277   4.0102088
   4.4676963  64.2891195   4.5671683   5.9722111  64.1251193   4.5900568
  50.5028376  41.7899825  38.5164216  51.2047003  41.2530363  38.8842659
  50.9568666  42.4634871  38.0099821  65.1468783  71.1058079  79.6408236
  64.9214169  71.8653229  80.1779792  64.8614576  71.3432054  78.7585486
  72.0950213  11.1257632  10.7567865  72.2109945  11.3105401  11.6887948
  71.1736997  10.8796230  10.6742433  30.4720258   5.5430392  77.9447198
  31.3980952   5.4283320  77.7314839  30.0951444   5.9495966  77.1643973
  63.7160637  68.7565198   0.6599198  63.2625641  68.4733778  -0.1340578
  63.3649227  69.6289776   0.8381031  17.4363901   3.0453771   8.4054811
  16.8819527   2.4314322   8.8870439  18.2157820   3.1439058   8.9523560
  75.2403676  64.6785245  85.6570213  75.8982730  64.3888213  85.0249894
  74.6028973  63.9649597  85.6832660   6.3236905  61.3411612   0.9725507
   6.9879976  61.4493060   1.6531626   5.8051146  60.5901621   1.2611875
  81.0084324  44.8980817  84.1682138  81.7469797  45.3855550  84.5331106
  81.0894290  45.0137349  83.2214849   9.3067113  39.6378968  25.7792007
   9.5174010  39.2708971  26.6377768   8.3723878  39.4629444  25.6666704
  48.5408986  45.9499776  16.2487826  47.9786335  46.6240892  15.8671240
  47.9424214  45.3917885  16.7452519  34.4325674  68.2000073  85.1399699
  34.6161533  67.9565961  86.0473172  34.3656514  67.3649890  84.6768301
   5.1272079  57.9780887  42.7068218   6.0737410  58.1153002  42.6683515
   4.7897690  58.7583539  43.1467685  60.0082406  19.5153797   5.0012611
  60.7319358  20.0016275   4.6062167  59.5489558  20.1624171   5.5366413
  70.5139010   9.3773200  19.5523913  70.9733106   9.8566297  18.8628720
  71.2019117   9.1260375  20.1686138  21.2097809  56.6845854  71.5426290
  21.6289185  57.2552899  72.1867190  21.9356551  56.3263691  71.0317281
  24.1160231  34.3474092  70.9515227  23.6584040  33.5331727  70.7421533
  24.0527850  34.8700725  70.1521130  29.0788979  61.4337176  21.6654740
  29.1824445  61.4289962  20.7139028  29.8018985  61.9750732  21.9823907
   9.3475731  42.9096387  27.7513199   8.9241966  42.3547483  28.4063625
   8.6861715  43.5648451  27.5288690  14.7524569   3.0271018  33.5510142
  14.1414049   3.3516190  34.2124791  15.5804173   3.4613907  33.7562132
  70.0981987  60.4956555  20.3514308  70.8566500  59.9133057  20.3083932
  70.4628807  61.3729276  20.2346726  19.9578812  11.9975655  74.7860119
  19.6043357  11.5553983  74.0141793  19.5762231  11.5273281  75.5272578
  59.5424365  63.0240273  42.5762466  59.2130633  62.1439460  42.7584610
  59.8345175  63.3513562  43.4269970  25.8315340  66.9276787  56.1723382
  26.2079380  67.0282675  55.2980192  24.9025966  66.7585406  56.0151776
  69.6070541   5.6053744  32.2173200  69.0089522   5.2856369  32.8928005
  69.0434466   6.0703968  31.5989895  25.0777712  25.5735867  64.4326205
  25.7947561  25.2157451  63.9090617  25.5122057  26.0377447  65.1482012
  67.7685002   0.8357163   2.0741137  67.9914042   1.6492454   1.6216580
  67.2767066   0.3291724   1.4277514  34.6568691  48.2560055  27.2687402
  35.0108287  48.8675963  26.6230614  34.2777658  47.5491172  26.7464171
  50.6649742   0.2545531  17.7615209  50.3418488  -0.5368853  18.1921566
  50.1075728   0.3517038  16.9894475  52.4096940   5.3719027  21.6929056
  52.5744247   5.9179732  22.4616076  51.6974151   4.7909202  21.9600194
  41.8461872  41.9222463   2.1689589  41.1092060  42.5115110   2.3297623
  41.9248645  41.8917761   1.2154846  12.6446380  29.9198270  76.4607317
  12.5454662  29.2613869  77.1483751  11.9670280  29.7017531  75.8207939
  13.1399119  49.5629502  46.1480213  12.8291444  48.6682286  46.0097151
  13.6798972  49.5097370  46.9365744  57.3574303  39.0350630  59.3433614
  57.2918435  39.7221370  58.6801423  56.4523768  38.8703341  59.6078881
  22.2208319  58.2187910  20.6545516  22.6838657  57.7448782  19.9637273
  22.2856413  57.6488509  21.4208413  83.5984908  65.5278844  77.9388641
  83.4350570  64.7562956  77.3964879  83.1831039  66.2472817  77.4633085
   4.8550770   1.0207610  37.9592873   4.1838717   1.6085667  38.3059857
   4.8486539   1.1800840  37.0154617  19.6089383   1.6530284   4.2811215
  19.5392194   2.6070134   4.2452918  20.4261409   1.4552498   3.8236333
   1.4681113  38.4050262  19.3537269   0.7294336  38.6369636  18.7908839
   2.1758028  38.1932342  18.7449998  60.0646882  14.5653156  67.8462675
  59.6110717  13.7952034  67.5036435  60.3418461  15.0466050  67.0666677
  62.1829774  28.1437105  22.7902519  62.8157969  27.5349928  22.4091560
  62.0405231  27.8162438  23.6783421  57.5974008   8.9672456  39.2633737
  57.3927564   9.0489526  38.3318822  58.5316481   9.1672489  39.3217895
  72.9373451  57.0871182  88.1948291  73.5680738  57.8030344  88.2714913
  72.6203133  57.1427230  87.2933687  83.0899367  46.7540548   2.7518945
  82.8044690  47.6146718   3.0586165  82.3564930  46.1727574   2.9528559
  11.1142396  58.4016835  30.9045741  10.6704837  58.4285576  30.0568771
  11.1431147  59.3152333  31.1888714  81.0973759  45.0733557  18.4692556
  81.7842897  45.7175705  18.6406282  80.9477300  44.6519132  19.3155559
   6.1778505  23.3433045   6.6694903   6.1206067  23.4636303   5.7216102
   5.6270268  22.5810653   6.8478618   2.7138859  65.2771454  23.5442330
   1.7974001  65.0045882  23.4995321   3.0894837  64.7408160  24.2424514
  25.0360988   4.4190166  20.7727118  24.2000637   3.9737560  20.6347981
  25.6143878   3.7402886  21.1207664  10.0185825  68.3898774  58.9731730
   9.4440314  68.2056939  58.2300719  10.4875940  67.5689329  59.1225390
  74.1209616  27.8634378  27.7797124  73.8383974  28.5661527  28.3650165
  75.0054435  28.1145613  27.5135158  33.8454364  17.4769132  86.1002681
  34.4952614  18.1356252  85.8552013  34.1423879  17.1521796  86.9503268
  56.3347634  30.8183044  40.2916426  55.9917383  30.9899763  39.4146623
  55.5555462  30.6947249  40.8336578   3.9237104   8.3059740  76.5905555
   3.7473816   8.7925356  75.7853240   4.8608899   8.1146100  76.5544150
  26.5349949  38.9168217  46.2796656  27.3655487  39.0174588  45.8146017
  25.8668275  39.0264883  45.6030879  60.2388401  69.2572915  39.7755421
  59.8559379  69.2499052  40.6527896  60.7394709  70.0723420  39.7395799
  36.2734052  13.7637192   8.8544846  36.6886938  12.9310042   8.6300896
  35.3592931  13.6536947   8.5927110  53.9040554  18.2974832  35.9059172
  53.3334049  17.7252346  35.3929637  54.5903420  17.7176903  36.2361938
  58.9150729  55.9122748  51.5638090  59.6948862  55.5925634  51.1100385
  58.7035681  55.2217777  52.1920696  85.0759486  26.2820317  57.2951686
  84.4529945  26.0673842  56.6008441  85.5639560  27.0322144  56.9556006
  72.0286674  60.1500646  54.7549173  72.4227033  60.9856145  54.5042706
  71.4091790  60.3759666  55.4487720  49.3406850  37.3539802  10.4744066
  48.4818331  37.4706719  10.0682191  49.9602041  37.4192589   9.7476559
  59.1203128  66.9868846  65.1535051  59.2369383  67.0121162  66.1032386
  58.2489536  66.6107334  65.0291049  27.5610304  44.2140286  58.1646441
  27.0756809  43.8350106  58.8974558  27.4865917  45.1598373  58.2916742
  84.4903530  59.1567732   1.3697785  84.3830546  58.2056653   1.3591639
  83.8664234  59.4608508   2.0289299  43.3230270  46.8550762  79.3637694
  42.5320555  46.9003994  79.9009303  43.3289206  47.6787414  78.8761499
  38.6311548  25.1550239   9.3060125  37.8374292  25.5373462   8.9317651
  38.4407764  24.2188682   9.3660148  26.3226048  45.8116561  35.8029289
  25.4603744  45.5747135  36.1444677  26.5554226  46.6115292  36.2743424
  10.8715244  32.4357062  14.7169503  11.1017918  33.3647027  14.7301522
  10.8127278  32.1903750  15.6403069  39.0509328  56.7466204  21.7108043
  38.8083642  56.3530619  22.5489594  38.6697621  56.1643929  21.0535737
  49.8739441  60.5950247  76.3297329  49.3569162  60.5992579  75.5241921
  50.7768419  60.7150521  76.0354527  83.9137524  40.3030817  39.7847329
  83.8484887  39.6910870  40.5178324  84.1762324  41.1311946  40.1866844
  19.8765811  20.0151854  31.2684180  19.3801482  20.3128192  32.0307829
  20.0441985  20.8122807  30.7656503  84.3726316  32.0093239  62.6598110
  84.3735936  32.4145504  61.7926188  84.7703274  31.1494937  62.5228371
  73.0578356  62.6086490  58.5869415  73.0761158  61.9614098  59.2919090
  72.1486194  62.6112418  58.2876910  69.3109166  67.2352544  68.0484571
  70.2032848  67.0524968  67.7543303  69.2032504  68.1771161  67.9160325
  58.4781403   0.2338322  41.0941718  57.8536092   0.9307848  41.2952932
  59.2361106   0.4246445  41.6467146  52.9702192  47.4052851  62.6277787
  53.8570752  47.1284273  62.3974135  53.0799793  48.2853667  62.9878356
  58.3905737  11.9867567  76.2401406  57.5495661  11.5575208  76.0829954
  58.6098741  11.7603056  77.1439431  59.4436115  63.4160728   7.1079759
  58.8984291  64.1593078   6.8498872  59.6711902  62.9879519   6.2826564
  16.4168303  24.9588885  86.2704040  16.8686437  25.7859555  86.4379052
  15.4867730  25.1797675  86.3197764  11.4732076  34.9984273  14.3175649
  12.0908535  35.6846940  14.5701188  10.9016485  35.4159142  13.6731606
  66.4365807  35.8000543  53.0546903  67.2525356  36.2904211  52.9547406
  65.7653006  36.3744267  52.6863001   8.4384465  62.9991980  85.9308901
   7.8400560  63.1242747  86.6674473   8.2018153  63.6885075  85.3103340
  86.7875343  35.9028984   2.0267431  86.9727742  34.9845435   2.2230652
  86.1936800  35.8724040   1.2766504  43.8044925  48.1285535  62.3881550
  44.1265712  48.1094505  61.4869712  43.2119118  48.8797976  62.4148444
  20.6965626  13.3292488   8.5020290  21.4876044  12.7941702   8.4374111
  20.0888933  12.7973032   9.0158419  76.0393615  58.3504538  18.4170342
  75.1992019  58.8068102  18.4628882  76.6226794  58.9665135  17.9738159
  33.9563010  58.4396891  69.6718265  34.2026504  59.2467435  70.1237192
  33.9243201  57.7783334  70.3630701  22.7449198  68.5251264  34.2981494
  22.4263991  67.6225156  34.2897723  22.8942468  68.7178372  35.2237821
  48.7809839  54.1820224  22.8900705  48.6971911  54.8849240  22.2457570
  49.0888621  54.6199388  23.6835893  49.3371555  32.9325534  36.6669153
  48.5652361  33.4212351  36.3813240  50.0715596  33.3743803  36.2406859
  65.1005919  37.1270987  21.7674050  64.1764441  36.8796815  21.7363028
  65.4341024  36.9176641  20.8949718  17.1046153  67.4339214  35.4855057
  16.9745514  68.3753199  35.3711203  17.7437749  67.3648655  36.1946870
  66.7519366  43.3773118  61.2513564  66.7643827  43.6801572  60.3434128
  67.6678987  43.4100807  61.5273479  72.8876196  12.1518432  21.9030202
  73.1704016  12.9833499  21.5224118  73.2930998  12.1350431  22.7699316
  68.8349519  16.3031036  37.7763893  68.1968823  16.8298710  37.2951252
  68.7254066  15.4178858  37.4290837  68.5670474  34.9363421  67.9756413
  68.5274692  35.4984905  67.2019135  68.7399964  34.0616058  67.6275654
  48.0137958  30.8150461  67.6708723  48.5268119  30.6079107  68.4519877
  47.6800704  29.9690768  67.3722168  38.0244445  54.8305312  56.7969091
  38.2046373  55.7247537  56.5068596  38.5458260  54.2796883  56.2129868
  42.1949467  39.0155849  56.9160344  42.8296038  38.4323754  56.4997305
  42.6755646  39.4135947  57.6418626  66.6946122  65.2947805  54.3230596
  66.4063921  66.0248250  54.8709611  65.9885793  64.6519020  54.3898167
  75.3408646  35.2398070  80.2533047  75.9118530  34.6429527  79.7696012
  75.4916451  36.0948159  79.8502454  27.5806185  -0.0850162  84.8248251
  28.2220205   0.1927506  84.1708519  26.7639261   0.3330728  84.5519754
  82.9861176   8.0263529  84.7330302  83.7451596   8.5341334  85.0198159
  83.3396121   7.1597244  84.5324596  45.5990980  22.7304606  16.3408668
  44.7600508  22.2764043  16.2629926  45.6848505  23.2174784  15.5212986
  69.2117501  13.6332657  60.6467598  68.3477899  13.8035073  61.0220227
  69.0308112  13.1656232  59.8314049  15.9588422  44.4184012  76.9123820
  15.8728776  45.0467527  77.6293312  15.0574238  44.1973309  76.6782778
   0.4308189  33.5305242  31.9606794   0.7402619  33.9342334  31.1498183
   0.3081782  32.6078807  31.7372510  12.3731879  43.6631491  13.6036470
  11.7750743  43.2960994  12.9526735  11.8224661  43.8276620  14.3690704
  61.5468328  11.8405389  73.5970479  61.7674445  11.2289478  72.8945391
  61.1208738  12.5730844  73.1518873  43.7871415  31.9091279  75.7575373
  43.2773549  31.7953836  74.9554079  43.2408448  31.5274888  76.4446642
  79.9419207  53.3389250  86.9432317  80.0339250  52.9195713  87.7987488
  79.6579641  54.2309343  87.1430314  72.5630221  23.3879916  13.0128162
  73.3613263  23.7348100  13.4111368  71.9644336  24.1344865  12.9869499
  33.0903035  58.2120694  23.7142908  32.1780164  57.9279124  23.7710263
  33.5951003  57.4600532  24.0239417  48.1058621  56.7327236  16.0053685
  48.0474254  57.5851982  15.5739707  47.2117930  56.5481076  16.2930997
   5.4713765  13.4673545   1.9842267   5.3455067  12.5187562   2.0076765
   4.5856032  13.8250731   1.9236055  44.9690044  28.6728007  20.4321470
  45.8290334  29.0033807  20.1727269  44.4873710  29.4514392  20.7114018
  10.6206386  53.8840155  36.8545852  10.4403800  53.3019137  36.1164143
  11.4946748  53.6307270  37.1514646  49.0308064  53.2843464  73.8518922
  48.8479011  52.5709023  73.2405207  49.2936007  52.8451630  74.6607735
   0.1779221  18.7117658  28.8854524  -0.0856073  19.4350829  29.4543078
   0.8975893  18.2886964  29.3537720  54.6851261  16.5289791  21.4956001
  54.5546855  17.1164038  20.7511881  54.0213709  16.7967450  22.1311804
  65.9576411  60.5993242  32.6714058  65.8685154  59.6515488  32.7714564
  65.3719586  60.9662053  33.3336792  32.0861274  54.9950889  58.3137065
  32.4107042  55.2997880  57.4663340  32.5053841  54.1437206  58.4387170
  10.1472016  51.6689745  87.1380035  10.5744539  52.2678123  87.7504417
   9.2635976  52.0222408  87.0346656  43.2397764  15.9350468  21.5831384
  43.0807619  15.1786456  21.0185117  42.4241218  16.0447571  22.0719155
  40.2422296  53.1918314  39.2918001  40.3779374  53.7038559  38.4945260
  41.0191488  52.6362602  39.3548005   2.9360171  46.4087636  51.4189879
   3.2956985  47.2764099  51.2344588   2.5266766  46.1393488  50.5967422
   4.1667510  60.1893159  56.3857943   4.2362125  60.3480478  55.4444064
   4.5734803  59.3324942  56.5148672  77.4704050   5.2965905   2.7099220
  77.7082265   4.4222113   3.0183597  78.0542380   5.8860062   3.1873736
   7.0364051  52.8683478   3.6741265   7.9725215  52.6755834   3.6215920
   6.9059913  53.5915213   3.0607390  56.8164925  17.6698879  59.9050333
  56.0111637  17.1637002  59.7980225  56.5892745  18.3503285  60.5387560
  57.5965613  31.8616498  15.8815211  58.1664562  31.0934510  15.9178839
  57.2906201  31.9757156  16.7813105  10.0168844  69.3377223  77.5793864
   9.3276519  69.6956366  78.1389289   9.7564428  68.4287877  77.4302561
  59.6754372  51.8855303  71.6043946  58.8928651  51.6795729  71.0931272
  59.9045246  52.7773645  71.3428942  37.7053897  60.0381420  43.7163509
  38.0447565  59.8244792  44.5854943  36.7671223  60.1708341  43.8515502
  49.6762069  21.5832832  43.2090081  49.2116467  21.5572369  44.0455110
  49.8051648  22.5157682  43.0355908  72.9948175  32.6611955  34.1032711
  73.3601442  31.8562473  33.7360837  72.0916018  32.4348851  34.3251197
  16.7458204  59.6065706  41.2640260  16.8968014  59.1888703  40.4161091
  15.7946937  59.6987511  41.3196385  44.4381869  61.6341960  38.3610895
  43.9977020  60.7855198  38.3168906  43.9175251  62.1421691  38.9832682
  29.1646814  67.8694361  27.4190075  28.3461020  67.5141707  27.7653399
  29.8347151  67.2475257  27.7027577  56.7459836  37.9221994  77.7331141
  57.2694833  37.2737225  78.2039195  57.0770701  38.7661113  78.0404025
  85.3554421  31.4855666  83.4450585  85.4475163  31.9039351  82.5890666
  84.7785095  30.7385745  83.2857370  19.0350757  62.0027983  80.4204484
  19.0547499  62.9426872  80.6005968  19.3885224  61.9212597  79.5346387
  59.6577386   8.1307074  17.6468342  60.0690954   8.9496038  17.9232870
  59.5132771   8.2405923  16.7070002  85.7953601  34.7639926  60.9211924
  85.0893114  34.3078532  60.4633017  85.6989990  35.6793999  60.6585597
  61.0331620   3.2888430  31.7499627  60.8190692   3.2532103  32.6822322
  60.8281345   4.1873368  31.4913038  19.6648579  56.1996069  48.3775907
  20.3155555  56.6969875  48.8730067  19.8362064  56.4252096  47.4632740
  60.7983755  69.4127624  31.9783019  60.1644843  70.1128325  31.8223671
  60.2938409  68.7252901  32.4131106  58.4357764  17.8524625  88.9052737
  58.3919781  17.1683278  89.5733105  57.5509349  17.8895720  88.5420791
  12.6788778  15.3633341  15.6655177  12.9413643  14.7537730  16.3552769
  11.8929480  14.9708547  15.2853780  33.4909807  24.4755621  82.2019208
  33.8518446  23.8088533  81.6175336  34.1835893  25.1324866  82.2724575
  35.4405663  48.7181485  22.7023887  36.2823231  48.2747062  22.5973350
  34.8144529  48.1542170  22.2483016  53.4235640  55.3945113  39.0363430
  53.1086585  54.8764964  38.2955820  54.3309182  55.1141775  39.1561480
  32.8371359  50.9733358  10.5072441  32.3166801  51.3022127  11.2401817
  32.2206111  50.4565317   9.9885510  15.6372778  52.4844611  79.5159276
  15.7051979  53.1489029  80.2015921  14.7208852  52.2089454  79.5393283
  35.8033439  69.9233323  29.2953840  35.2003127  69.2195176  29.0561559
  35.4325647  70.2946492  30.0959328  37.0485642   9.4423990   0.7696120
  36.4074149   9.5831944   0.0729513  37.5521859   8.6811465   0.4813556
  30.7764937  35.2054485  67.0016859  30.3486990  34.8973171  67.8006093
  30.6736910  36.1567860  67.0265917  38.2127161  13.6129408   3.4702019
  37.8167265  13.4498706   2.6141457  37.4696155  13.7803672   4.0498584
  59.7621677  13.5232751  72.5672729  59.5611032  13.1552181  71.7068434
  59.5620721  14.4554121  72.4817495  64.9945353  41.3677229  11.3251322
  64.8583018  40.8050860  10.5628252  65.9402047  41.5139172  11.3489738
  69.8224004  68.9059179  37.1179120  68.8975250  68.6938711  36.9919216
  70.0624913  68.4579624  37.9290372   4.5479330  69.6012044  31.5390012
   5.3666263  69.5921612  31.0431269   4.4016746  68.6855598  31.7765620
  60.6559601  31.5960749  34.3787640  60.3249717  31.1812714  35.1753923
  59.8723997  31.9177864  33.9329313  33.9488237  12.3096072  12.3614591
  34.7591598  12.6559305  12.7351534  33.2631685  12.8838250  12.7026083
  74.2997491  16.1448499  80.0646468  73.3860428  16.3049955  79.8285834
  74.2776100  15.9752046  81.0064335  81.3810641  49.4298222  71.5429261
  81.4308880  50.3650992  71.7404267  81.1408281  49.3930000  70.6170953
  64.7029555  12.5525590  56.4665753  64.3565447  11.8081119  56.9585407
  65.3628853  12.1709069  55.8877264  63.8064560  58.9190346  19.8412415
  64.6291275  58.4332607  19.7823588  63.3102530  58.6441055  19.0702496
  70.3523948  24.4327607   7.3438590  70.3729815  25.2598870   7.8251802
  70.7597377  23.8007504   7.9361989  29.0592930   7.6773348   5.6644541
  28.2706261   8.0487818   6.0597559  29.2302168   6.8835717   6.1713633
  13.5399284  48.4591041  22.0735472  14.2738260  47.8649112  21.9168279
  13.8160002  48.9886103  22.8216377  49.7960820  36.4878650  88.5309739
  49.7200635  35.5565669  88.3232799  49.6762782  36.5322569  89.4796088
  60.8490688  48.0014945  26.2641948  60.4194111  47.5303539  26.9780944
  61.0818469  47.3201335  25.6334862   1.3078691   6.3091841  31.3197712
   1.7699914   5.6169699  31.7925441   1.9698598   6.9860299  31.1787754
  57.0633897  66.7740788  84.8982999  57.6600232  66.0473838  85.0776731
  57.6367992  67.5316575  84.7820767  26.8775241  52.9461712  30.2350804
  27.7829793  53.2406213  30.1366835  26.8601405  52.5047947  31.0842661
   2.7116104  37.3054292  58.4657761   2.5901040  36.3624621  58.3549558
   3.2350397  37.5700122  57.7093045  56.4557530   6.0686353  21.4240744
  56.0010502   5.5336326  20.7734982  56.8422314   5.4344061  22.0279117
  85.7518284  38.5836792  28.2083917  85.0235688  37.9801408  28.3553991
  85.5411809  39.3482673  28.7443625  46.9339106  52.9700963  24.3854137
  46.7104652  52.2194027  23.8351745  47.7480960  53.3071434  24.0116044
  36.2289299  56.2604615  47.9476955  36.0375834  56.0121323  47.0432891
  35.4500076  56.7367472  48.2352089  69.0539255  38.7603098  24.5384941
  68.3048972  39.1267428  24.0684777  69.8175144  39.0741453  24.0540654
   0.2089569  31.3725895  88.4616544   0.7485388  32.0623673  88.8480349
   0.6238518  30.5575025  88.7440146  81.9860190  31.8673328  39.5087094
  81.8738599  32.6064272  38.9108871  82.7726800  32.0820072  40.0100189
  13.0016614  37.0838281  22.4443619  12.7618337  37.6439458  23.1825914
  13.6063972  37.6155296  21.9268485   3.9144042  52.6146451  13.5450457
   3.3751924  53.1163957  12.9337120   4.6884328  53.1600959  13.6850275
  83.3208628  53.2931078   0.4922179  83.7093840  53.1392759  -0.3689551
  83.9706114  53.8199981   0.9574545  57.3415544  13.9268963  88.6259752
  56.9925155  13.0479596  88.4780768  58.2220376  13.7799410  88.9714970
  20.7090812  40.1819441  25.9209821  20.1074959  40.7437871  26.4095099
  20.1433447  39.6730671  25.3402772  64.6642508   6.4526796  59.9056622
  64.1568176   5.9497700  60.5427064  64.9295981   7.2409465  60.3794321
  16.8141503  68.6091937  62.2186058  16.4974714  68.3512253  63.0842839
  16.0463254  68.5375910  61.6515523  75.2642383  56.3556256  65.0206825
  74.8191291  55.8741514  65.7180291  75.7148500  57.0692517  65.4722561
  71.3794459   1.3097872  17.0722335  70.9350590   0.4762141  17.2268556
  72.0710401   1.0997208  16.4446976   9.1367125  26.3248069  80.3435073
   9.1424411  26.1064029  79.4115745   8.3461202  26.8514338  80.4612349
  58.6635684   7.0201297  59.9679593  58.3812745   6.4461045  60.6800248
  57.9870435   6.9212276  59.2980606   2.5482639  49.5691353   3.2936748
   2.5761652  49.0066211   4.0676458   3.4570631  49.8385445   3.1605033
  52.1250945  20.9927487  28.6973286  53.0526093  20.7588288  28.7323937
  52.0959804  21.9020146  28.9950192  61.6485467  24.6752917   1.3470748
  62.3702041  24.3678396   1.8956324  62.0449828  24.8180084   0.4875969
   7.0148224  13.0793061  69.8299770   6.2541150  13.1417773  70.4076044
   7.4792012  13.9069048  69.9551350   2.0573687   7.4533778  86.1384062
   1.8118884   6.7336505  85.5570596   1.4048354   7.4291550  86.8382958
   0.2869838  40.0853474  21.2424009   0.5231390  39.4014075  20.6157520
  -0.0456529  39.6088165  22.0029947  24.8026611  26.3547543  13.0178675
  24.6091698  25.8581286  12.2227852  25.2523737  27.1401532  12.7061965
  50.0369797   8.0014887  49.4883252  50.7364601   8.2768171  48.8957433
  50.3723714   8.1989175  50.3628343  80.1596041  11.9088313  57.2951640
  80.6941470  12.5767569  56.8657795  80.5236607  11.8416983  58.1778801
   8.0316923  44.9919761  26.4963068   7.3126074  45.3970825  26.0115001
   8.7719471  45.0143022  25.8898778  15.9451247   7.9379679  61.2879111
  16.2417549   7.4390351  60.5267880  16.3504023   7.4982421  62.0353221
  55.9108221  26.3410040  16.8476690  55.0742381  26.6365501  17.2068509
  55.9255883  25.3993109  17.0186305  75.7784397  19.3645736  52.4888811
  76.6492713  19.0201616  52.2907281  75.1812406  18.8074362  51.9896987
   2.1531606  36.0848228  45.9192033   1.2841086  35.6963344  46.0194886
   2.1376654  36.4852191  45.0499079  60.8292649  51.3619095  82.9615727
  61.5326334  51.6734029  82.3919442  60.0861788  51.9294939  82.7568710
  81.8715222  19.5950972  85.6776465  80.9899956  19.5103624  86.0409133
  81.7454712  20.0557582  84.8481077  23.4728042  35.4957074  24.5084966
  22.6146983  35.5618141  24.0895503  23.5318939  36.2772246  25.0580156
  19.8200787  46.4246259  33.2775748  19.3128643  45.8720954  33.8722810
  19.5438477  46.1515156  32.4027382  63.1732539  17.3496299  42.1097996
  63.8462015  17.0568530  42.7243360  62.4311958  17.5908306  42.6642397
  52.7389277  60.2859475  54.1959513  52.2474216  59.7715417  54.8362951
  52.1955852  60.2700105  53.4080701  82.5638687  41.7511562  50.8995285
  83.2917379  42.3575779  50.7628133  81.8786775  42.2859131  51.3005022
  18.3431935  40.0639181  61.9439229  17.9626583  39.6973057  61.1457874
  19.1112302  40.5489927  61.6421712  74.9431211  42.6224510  14.9993428
  75.6084298  42.7710708  15.6712866  75.2303172  41.8278226  14.5495475
  68.1950158  38.4470412  18.3691467  68.2144083  38.5689601  17.4199410
  67.2899992  38.6366999  18.6165462  46.1682186  52.1470431  44.6376953
  45.6682037  51.4168086  45.0023519  45.5182733  52.8353498  44.4961439
  51.6085183   7.7804279   2.6671659  52.4252489   7.9260956   2.1897103
  51.3094776   6.9199428   2.3732748  16.0679777  39.9598638  16.7306542
  16.1032737  39.3310761  17.4514954  16.9223251  40.3912037  16.7470317
  33.9223510  66.7841335  36.3173688  33.5995955  67.1484563  37.1415833
  33.5395304  67.3439272  35.6418606  26.8362859  57.2848767  28.3530416
  27.7401057  57.1268755  28.0803198  26.4057195  56.4351670  28.2590312
  79.1089261   9.0633522  31.1458155  79.1574104   9.4704369  32.0107798
  79.9467018   9.2751683  30.7341145  16.6102545  34.3829247  81.6695051
  17.1814373  33.7609440  81.2188144  16.8608703  34.3141313  82.5907493
  50.6177842  71.5841733  73.7874548  49.8768925  71.1084535  74.1629571
  50.8521525  71.0840185  73.0056949  85.7937518   7.5291404  48.7295603
  85.5327075   8.3844201  49.0710048  85.7069250   7.6136456  47.7800594
  76.4500837  43.7979584   6.4185305  76.5138737  44.2905372   5.6002831
  76.2321016  44.4564664   7.0781387   1.3945217  36.6007278   9.0754871
   1.6120385  35.8272546   8.5552396   2.2396732  37.0100623   9.2609488
  63.8591270  32.6649252  20.6173004  64.0938890  31.7392885  20.5516097
  63.3483461  32.7257707  21.4245380  23.9638372  40.1075560  34.1546751
  23.5311779  40.5719548  33.4381757  23.4133197  40.2795987  34.9185885
   3.0035967  50.3845742  12.1847477   3.8984943  50.2923043  11.8578283
   3.0473522  51.1174188  12.7989595  75.8247801  71.6621107  29.8950224
  75.3590721  71.6053281  30.7293626  75.3994003  71.0098302  29.3384130
  33.5262956   5.4198372  18.5594404  32.7801687   6.0045399  18.4265902
  34.1678335   5.9530475  19.0288525  66.9854564  41.2973981  14.6495958
  66.2877275  41.8016184  14.2310650  67.7814958  41.5612082  14.1881228
  23.3819198  51.8129523  52.0838153  22.6971923  52.2728995  52.5694372
  23.7321931  52.4704906  51.4828296  38.8231906  45.1153971  86.4700160
  37.9937952  45.4318400  86.1119672  38.8291421  44.1794808  86.2693740
   9.1760061   4.4418528  62.7393040   8.7493593   3.5885943  62.6608553
   8.8743322   4.7840153  63.5808202  35.1207533  14.3585132  87.8386075
  34.2325694  14.0293446  87.9764814  35.0475934  15.3047081  87.9634867
  57.3886775   2.2441747  12.4857352  56.5133444   2.6292246  12.4437778
  57.4710467   1.9342957  13.3876344  31.0191965   0.7125513  46.8973329
  31.4573576   1.5606668  46.8269991  31.0028630   0.5285600  47.8365412
  43.4454650  33.5375539  84.9313425  43.5551756  33.9738645  85.7762262
  43.9732406  32.7421534  85.0022144  27.6616080  54.8816276  32.5779413
  28.2973066  54.7037128  31.8847852  27.7415920  54.1364059  33.1733228
  43.8323770  42.4443094  26.8274328  43.0307340  42.9580139  26.7289042
  44.4848072  42.9170190  26.3106037  66.7589116  41.6775843  25.5521083
  65.9404856  42.1307912  25.7546278  66.6545391  40.8093272  25.9412970
  59.9564474  33.9788472  24.2241131  60.3817524  33.8021410  25.0632332
  59.3714858  34.7152213  24.4024526  83.7023539  54.8474785  75.9035375
  83.7172315  54.0389465  75.3913984  83.9188172  54.5709781  76.7939998
  47.0436939  51.1179446  31.5668331  47.3083047  50.5042096  30.8816015
  46.1925848  51.4471308  31.2779014  41.0886768  36.2197332  81.0582952
  41.8572956  35.7967049  80.6755367  40.6341051  36.6108184  80.3122063
  72.3399640  39.9315138  48.7983171  71.5682137  40.4412795  49.0448373
  72.7218383  40.4143713  48.0653420  74.9335053  20.5563452   1.7126266
  75.4144347  21.3337138   1.4286605  75.5803420  20.0348709   2.1879146
  58.0889305  37.3292809  45.0606547  57.4828469  37.9132142  45.5166332
  58.1471844  37.6884677  44.1753168  18.5813642  41.9338936  57.7425357
  18.8372424  42.2143923  56.8638556  17.8532486  41.3294728  57.5984701
   5.3741285  33.3565708  73.5600879   6.2261937  33.5392314  73.1640427
   4.7873088  34.0087215  73.1772382  39.4955617  51.9965967  83.5868101
  39.4671493  52.9533741  83.5855774  38.5809359  51.7299379  83.6794634
   7.2795016  54.5111214  26.8651290   6.6333942  54.0029748  26.3746556
   7.0812499  54.3279527  27.7834848  31.5679488  46.9672294  19.4722509
  30.6247695  46.8791814  19.3348025  31.7426495  47.8995939  19.3441569
  74.3929809  16.2787720  17.2123889  74.9870105  16.5475808  17.9131760
  74.9471859  16.2321678  16.4333404  62.1245009  30.7495613  15.6039689
  61.9072664  31.4783952  16.1852107  62.9960923  30.4708254  15.8848008
  36.4514695  62.6075644  48.5559484  35.6091376  63.0245696  48.7370986
  36.9176884  63.2380168  48.0069479  15.2654048  52.4265083  84.0607956
  15.0441329  51.4952802  84.0515865  14.7028430  52.8130086  83.3896968
  81.1338704  71.8743441  34.2121892  80.6240813  71.1264204  34.5235686
  81.9896651  71.7707835  34.6282693  42.7902481  61.4225149  10.0658210
  42.8077977  61.6276340  11.0006204  42.0358445  61.9056956   9.7287105
  11.9493124  23.9883739   1.3498460  12.3798182  24.8054280   1.6014791
  12.6622490  23.3534083   1.2807663  80.6117633   3.8264008  46.5038208
  79.8315021   3.3314009  46.2540220  81.2967131   3.1639785  46.5947731
   6.0399370   7.0508569  25.3399588   6.9150917   7.1707153  25.7086997
   5.5650596   6.5545533  26.0065967  29.7501868  34.7355138  69.4946555
  28.8379356  34.9884551  69.3530565  29.7002674  33.9682918  70.0648399
  62.0091779   7.2453388  67.2403577  61.9259095   7.8131752  66.4742898
  61.4740814   6.4799363  67.0304467  41.0289913  39.6868705  77.0684506
  40.9830554  38.7600694  76.8335857  40.3927888  40.1115874  76.4930431
  69.9512531  67.1875804  64.6241056  69.0990496  67.2787679  65.0503285
  70.5602396  67.0119744  65.3414129   7.2703325  23.3841412  64.5764181
   7.6808630  24.0391394  65.1409302   7.5782556  23.5998058  63.6961317
  56.3529440   7.6015138   9.6715369  55.4266692   7.4394323   9.4927174
  56.7166484   7.8687556   8.8274203  41.1208707   6.6176345  20.5406042
  41.1077900   5.6619691  20.5931812  40.3272590   6.8416538  20.0545716
  34.6851531  39.6961685  35.7785019  34.7641387  38.7426991  35.8083241
  35.4696264  40.0155501  36.2244043  59.5851072  31.1769822   0.9118566
  58.9111778  31.2756349   1.5844030  59.7627813  30.2367469   0.8869302
   5.0743466  42.8992426  79.6266137   5.9170687  42.6111056  79.2758596
   5.3029200  43.4785741  80.3534981  53.5154067   1.3642553  81.8143038
  53.2663296   1.3427731  82.7382795  54.3581187   1.8180836  81.8039019
  39.5134165  57.3768541  82.3673825  39.2091414  56.4693089  82.3641825
  40.3769364  57.3385058  82.7785936   5.9106759  57.7914087  33.5977369
   5.5224317  58.6551202  33.4580916   6.0286876  57.7323015  34.5457936
  73.1984514  30.4566860   0.8374672  73.3565358  30.8068930  -0.0392290
  73.2886703  31.2129021   1.4173203  47.6402423  71.4812126  54.4387888
  47.4545897  70.8805565  55.1605762  47.7905963  70.9106833  53.6850503
  81.2481089   6.5970537  45.9419337  81.0942115   5.6618728  45.8078286
  80.9059421   6.7728225  46.8184376  74.2684090  43.5502746  86.6670412
  73.3958290  43.9091565  86.8284098  74.3685639  43.5827566  85.7156498
  42.9740767  44.2311894  51.4324314  42.4399154  43.4942095  51.1361812
  42.7619273  44.3226367  52.3613350  50.4067145  41.6796345  11.3437321
  50.3866098  41.4472781  10.4153798  51.0853704  41.1170664  11.7167939
  85.3166716   9.8538030  54.3562945  85.3735912   9.8564088  55.3117971
  84.6458825  10.5061587  54.1545374  46.9414565  32.3905965  28.2670437
  47.4232874  32.9831800  28.8440321  47.4747697  31.5961849  28.2402283
  67.7414568  29.2591681   5.7724364  68.6288049  29.1082425   6.0981151
  67.8117167  30.0556029   5.2461408  32.3790580  48.2029554  36.0336846
  32.0658817  48.3323198  35.1384654  31.5854332  48.2122627  36.5687593
  51.7008051  21.7947210  71.5714844  52.4173520  22.3871951  71.7990074
  52.1331949  20.9701720  71.3492461  47.1432717  34.9163385   3.0202835
  46.8101934  35.0697688   3.9044497  47.9664446  34.4461381   3.1526833
  61.3378469  65.3614582  43.7296467  62.0795621  65.4549522  43.1318597
  61.4785399  64.5158159  44.1554711  15.7704490   4.9766261  68.5394306
  14.8476564   4.8515260  68.7608705  16.2366908   4.3504809  69.0933192
  52.6393275  26.1886727  74.0621320  51.9931351  26.5047525  74.6936072
  52.1515850  26.1026531  73.2430229  85.2275887   3.2191281  42.1492974
  84.9543439   2.6714813  41.4133272  84.4523328   3.7387094  42.3620075
  34.6538027  60.4838858  65.1073828  35.1528325  61.2967609  65.0271639
  35.1037319  59.9935300  65.7953847   5.8299794  20.2600967  25.1472896
   6.4819549  19.7023072  25.5715898   6.0910144  21.1516676  25.3779278
  86.6199946  63.7341557  19.0574177  86.2679566  64.0764144  18.2357364
  86.6312928  64.4889367  19.6459836  41.2652952  35.8723747   3.1612347
  41.2621669  35.4928765   2.2824838  42.1269288  35.6511335   3.5146066
  84.4608001  24.5558542  10.0809849  84.8738375  23.7121332   9.8972274
  84.9504414  25.1831407   9.5490123  28.8835079  68.6581078  10.3100909
  28.2349861  69.0956893   9.7585714  28.3979555  68.4034957  11.0947203
  12.9708483  61.3337591  29.5437248  12.7468835  62.0898015  30.0863772
  12.2432401  61.2580663  28.9264010  19.0239103  30.7308303  67.2257039
  19.9810176  30.7422434  67.2325746  18.7840025  30.2760528  68.0330783
  53.1954781  54.2586930  78.4895905  52.4459752  54.6851010  78.9051064
  53.7695094  54.0205877  79.2176192  52.9023197   9.9910439  56.5492622
  52.0430991  10.4124758  56.5684204  52.8632988   9.4017269  55.7959929
  24.4981470  20.6077142  59.7336105  23.9121123  19.8686432  59.8966112
  25.3755209  20.2549103  59.8818547  74.8608424  12.8885849  57.2312762
  75.3990557  13.6560573  57.4250399  75.4258509  12.3278377  56.6997126
  82.8330742  26.1433257  16.6454705  82.8005908  25.4922439  15.9445646
  83.6431653  25.9479989  17.1164607  79.1232981  15.8893578  59.2079903
  78.7381237  16.7620362  59.2873930  78.8255582  15.4241062  59.9897343
  16.7671906  13.6429806  12.1158634  17.6641024  13.9242105  12.2966695
  16.2390775  14.0843970  12.7810550   1.9816817  49.5019828  24.8212302
   1.0339535  49.4712877  24.9520002   2.2569885  50.3106341  25.2531112
  34.4814555  41.1831938  13.3181357  34.5077196  40.8026985  14.1960681
  34.7569342  42.0914362  13.4423892   9.5217149  70.7953572  62.4376692
   9.1254700  71.6637220  62.3658055   8.9315996  70.2216232  61.9489719
  34.2555142  63.9725738  66.9650727  35.1905792  64.0725501  67.1436508
  34.2174119  63.6326572  66.0710723  27.0994413  16.3600039  69.2749785
  27.1604852  17.2248534  68.8693421  26.3707991  15.9344102  68.8231132
  84.8273027  31.9491236  34.0492787  84.7612527  31.0776893  33.6588027
  85.1318956  32.5090855  33.3352074  71.2576734  14.7060551  26.6836970
  71.6193163  15.2788021  26.0073782  70.5344485  14.2519020  26.2513516
  26.6291415  10.5699241  70.7324574  25.7246447  10.7335234  70.9995768
  26.6856835  10.9277835  69.8464712  37.0683192  67.4441995  78.2851120
  37.2291228  67.0415996  77.4317145  37.6955993  67.0212270  78.8714955
  77.2679040  14.3427330  82.0607656  77.4562176  13.4484520  82.3454257
  77.6203434  14.3904357  81.1720909  47.2807609  65.7905494  45.1467103
  46.6304561  66.3649800  45.5508946  47.6841420  66.3278306  44.4649154
  17.9841730  64.8950154  69.0176881  18.4451716  64.1777170  68.5827224
  17.3109979  65.1616429  68.3916075  60.5556662  43.0768544  48.8713041
  61.2696657  42.6848638  48.3685320  60.0417875  42.3304108  49.1794963
  36.7433535  47.1366298  79.0227130  37.5904832  47.4984618  79.2828684
  36.1125903  47.8226335  79.2412731  59.0998971  41.0338941  55.8765165
  58.9526028  40.7919528  54.9621858  58.2899455  40.7872119  56.3230119
  72.1298325  51.5938792  51.4222819  72.0777083  50.7630633  51.8947857
  73.0585484  51.8245276  51.4450845  75.1032575  51.4851492  51.9697643
  75.4816720  51.6052929  51.0987879  75.7405660  50.9434062  52.4351504
  56.0029114  44.7295073  63.3154566  56.2266120  45.6299462  63.0800853
  56.8329089  44.3409166  63.5917413  63.8491676  13.9249914  21.4746897
  64.0852619  13.0546535  21.7956312  63.9769893  14.5010174  22.2284055
  35.7480829   8.6178025  15.8006216  36.0019317   7.8316754  16.2841469
  35.2754280   8.2870114  15.0368112  54.6850024  62.4453555  56.6208212
  53.8489584  62.1654137  56.9935071  55.0313932  61.6616906  56.1940724
  43.5849632  64.6939125  21.4746662  43.2047365  65.3077848  20.8463189
  44.3656397  64.3553236  21.0363358  42.4209686  22.3805638   2.0095693
  43.0693340  22.8297981   2.5518264  42.6685476  21.4570928   2.0558068
  72.9601502  47.7958389  27.1703084  72.5150748  48.4439543  26.6243358
  72.3514549  47.0582203  27.2108123  35.3002612  63.2697489  64.5535463
  34.8822833  63.5178828  63.7289519  36.1592440  63.6909883  64.5229235
  74.3251779  32.1621547  21.7600882  73.3691217  32.1154518  21.7573949
  74.6055856  31.3113849  22.0974221  35.1063350  69.9731895  36.7386140
  35.1404958  69.2772442  37.3949104  35.8088707  70.5731881  36.9889679
  64.6031790   1.2033407  56.7070724  65.2845483   1.8518612  56.8842413
  64.9284035   0.3981367  57.1096980  62.1083243  22.8876925  78.5145197
  62.5891279  22.3218330  77.9104811  62.7269386  23.0610176  79.2241018
  81.2815155  51.5514131  33.2173563  82.1675165  51.2226676  33.0651706
  80.7276965  50.7713877  33.1845426   6.1896759  17.9822501  75.8277011
   5.5698882  18.2931935  75.1678457   7.0315947  17.9580219  75.3729290
   6.1630622  15.0873479  13.9718958   5.8474452  14.1857091  14.0324382
   5.7721207  15.5290849  14.7257294  57.9385748  38.7512621  64.6738694
  57.4420688  38.9426595  63.8782057  57.2968450  38.3641934  65.2693462
  19.3864069  53.8302640  65.9588743  18.4324277  53.9042211  65.9850630
  19.6037416  53.8636568  65.0272723  66.9311064  48.7278198  72.4418075
  67.7522879  49.2042497  72.3197116  66.3836383  49.3218295  72.9552887
  15.1590816  64.8211480  32.0931373  15.6601852  64.1422617  32.5450669
  14.8543340  65.3994059  32.7924073  52.0036816  54.6852916  67.3306681
  51.4461609  53.9644720  67.0377148  51.4800330  55.4714008  67.1755669
  26.2017621  61.5709956  32.3620345  26.7876230  60.8245801  32.4879818
  26.0240652  61.5799708  31.4215160  72.6397563  46.0552005  34.3263060
  71.9006986  46.6483256  34.1912941  72.2721032  45.3233280  34.8217105
  47.1541475  14.0833311  23.1610699  47.1515299  13.1415336  22.9900655
  47.7110196  14.1850626  23.9329352  32.3278104  46.9912767  62.0090857
  31.6119749  47.4022151  62.4937928  32.2529545  47.3472920  61.1237149
   2.9796604  23.3371879   0.8213510   3.1685652  24.2136369   0.4861137
   2.0531914  23.1997580   0.6238668  59.6060374  31.5949580  20.5205387
  59.5092906  31.0482369  19.7408157  59.6477901  30.9720686  21.2461400
  55.4364314  56.5633504  78.3752863  54.5609069  56.1789022  78.4187396
  55.5350297  57.0290096  79.2057511  20.5422460  43.9106389  22.1658910
  20.4540094  44.6680824  22.7444456  21.4496811  43.9448740  21.8632009
  79.2201838   9.1740933  43.5931891  79.6560117   9.2617882  44.4408892
  79.0418675  10.0743721  43.3212825  65.3423824  67.8971184   3.1934092
  66.2936268  67.7905373   3.1959369  65.1075585  67.9303481   2.2660552
  48.6751562  41.5220335  40.5632444  48.3905117  41.9869196  41.3500674
  49.3041331  42.1134846  40.1499581  34.3538687  14.1074192  80.2634638
  34.3631568  13.4180695  79.5994287  33.6375699  14.6848002  79.9993064
  29.0663120  10.0642164  82.5638118  28.3173946   9.5874878  82.2059230
  28.6834580  10.6706402  83.1977714  21.1402372  32.3665242  64.1343875
  22.0425434  32.0604256  64.0428504  21.1167807  33.1914030  63.6493550
  81.5502395  42.0798362  44.6212207  82.4808335  42.2592050  44.4868577
  81.1798537  42.0622638  43.7387597  68.0711266  41.5577588  57.9568210
  67.4063418  42.0983771  57.5301772  68.6675753  41.3096846  57.2504642
  40.7753311  56.6463127  85.7633550  40.3291628  56.4329318  84.9438221
  41.6666700  56.8736414  85.4986504  41.3221502  38.4988577  68.9597128
  40.8492610  38.2671812  68.1603795  41.8003175  39.2963313  68.7325043
  81.9618510  14.6057771  40.9659035  82.3283925  13.8702671  40.4750836
  81.1281667  14.7906145  40.5334252  24.2589058  61.2852547  36.3528507
  25.1920479  61.0826851  36.4195078  24.1718455  62.1487995  36.7565124
  70.9777765  63.0961554   1.8865754  70.8138263  63.9014902   2.3772769
  70.8532080  63.3442803   0.9705249  83.8264471  58.1736792  56.2548557
  84.4046046  58.8274027  56.6480622  83.7232960  58.4600634  55.3473449
  83.1293858  35.6332443  24.8614107  82.2193560  35.3435183  24.7970953
  83.0839335  36.5857499  24.7783510   4.4117231  36.1276759  62.5354248
   4.1154473  36.8361638  61.9640253   3.7727802  35.4278800  62.4002602
  21.9558336  51.1444086   5.8415964  21.9169495  51.2088013   6.7958361
  22.8018194  51.5276592   5.6099525  78.0147104  14.2984018  47.4612331
  78.1817407  13.5075923  46.9484438  77.0670786  14.3006256  47.5962179
  11.9924321  42.5938802  21.1597877  12.5272200  43.1471055  21.7291519
  11.9197170  43.0893290  20.3440213  57.4596995  16.1814769  56.7908752
  58.1904080  16.2857814  57.4003155  56.7542207  15.8141486  57.3234176
  26.0709911  12.2794152  74.7862627  26.4596943  12.4890921  75.6354842
  26.2179906  11.3394346  74.6810986  55.7835773  50.7469527  59.8804878
  56.1663171  51.2225963  60.6177159  55.0511601  50.2629703  60.2620084
  39.6500200  24.6566554  20.3342894  39.9105387  24.4533314  21.2326330
  40.2416139  25.3599674  20.0667062  77.8033390  28.7658923  79.6675861
  77.7122617  29.0565310  80.5750364  78.7475155  28.6758134  79.5385573
  17.2166621  49.3543258  76.8016210  17.7034968  49.7156154  76.0608825
  17.7443518  48.6118802  77.0958145  77.6954671  28.2508504  21.0983418
  77.2754133  28.0828566  21.9418848  77.5578127  29.1854658  20.9441431
  42.6953719  52.5413273   3.6691007  43.4958915  52.3832006   4.1694967
  42.8027149  53.4255716   3.3186419  44.6140925  19.6008292   6.1270695
  43.9375518  19.6221397   6.8038785  45.0764528  20.4332964   6.2242972
   1.5353095  31.5437665  47.6332842   1.6734990  32.4761685  47.4666647
   0.9557457  31.5198465  48.3947075  10.2856251  45.9159901  25.2446432
  11.0329478  46.2046933  25.7684667  10.2781075  46.5071802  24.4918686
  71.5949498  66.2484372  41.4496004  72.3969753  66.5422321  41.8816553
  71.0110535  66.0054325  42.1681028   8.1582589  46.3732954  85.9405688
   8.6965028  46.8110262  85.2810864   7.5242224  47.0372668  86.2114406
  35.4010795  69.2635241   6.9367945  35.4021522  69.1318772   5.9886912
  34.5265085  68.9919073   7.2153295  44.7064482   1.8978023  45.7432129
  45.5046057   1.3704087  45.7753449  45.0155832   2.8028103  45.7835605
   2.9113666  38.2412230  40.2377887   2.5637627  38.9133889  39.6516178
   2.4178896  38.3534760  41.0502612  16.6655502  57.8190804  54.5581813
  17.2071596  57.7789992  55.3463974  15.9347890  57.2279952  54.7393945
  65.5753467  60.0306763  36.6839479  64.8654231  60.1328539  36.0500710
  65.8623677  60.9250205  36.8683365  31.9519366  61.6130591  65.3119337
  31.8767394  62.3446736  65.9245653  32.8830418  61.3911379  65.3170210
  45.7497643  69.8961009  30.0871178  45.2930287  70.4279503  30.7388545
  46.4405259  69.4537113  30.5804450  51.2473477  36.9595821  86.1942265
  50.9432449  37.4807939  85.4511978  50.6379769  37.1719960  86.9011772
  69.0892654  64.0244750  18.8140322  68.1930102  63.6898406  18.7827544
  69.5311063  63.4663802  19.4539843  53.6878467  30.9319235  70.5068367
  53.3669346  31.7685627  70.8434109  54.3714604  30.6717308  71.1242539
  76.4290306  17.8372051  34.5577292  75.8137090  17.1122827  34.6677230
  77.2835727  17.4597761  34.7663846  11.7825609   0.5318802  32.8081961
  12.7193109   0.7149913  32.7360735  11.3968724   1.3625539  33.0865076
  53.4801520  15.1253106  35.2201256  52.6396557  15.4740719  35.5170488
  53.3694034  15.0038800  34.2771404  77.9969232  68.4802554  29.2350411
  77.1429704  68.4973031  28.8029464  78.3412815  69.3659280  29.1200055
  51.2678580  47.3519398   1.0493266  51.1050046  46.4180450   0.9168458
  51.5597894  47.6678266   0.1942105  84.1497933   3.2629433  30.5803776
  83.9759887   2.4891620  31.1163686  83.9708193   2.9785780  29.6840872
  21.0863768  28.2083497  81.0255898  21.3194703  27.5095770  80.4143485
  21.2650085  29.0165578  80.5448381  67.3316938   0.7941073  87.6443058
  66.8796123   0.3076093  88.3336344  67.4632929   1.6671065  88.0141515
  63.4661250   4.7078305  25.3627658  64.1244929   5.3831653  25.1993447
  62.6863403   5.0169711  24.9016804  49.1325061   2.3058442  68.8142024
  48.2811199   1.8697734  68.7793372  49.0582226   3.0266241  68.1887504
  85.4171075  65.6443173  12.2004785  85.3358369  64.9650724  12.8699957
  86.3191468  65.5674753  11.8895890  79.1465429  63.7270914  76.9103554
  78.2527209  63.6139550  76.5870687  79.4554202  62.8365855  77.0771666
   5.7258671  48.4981613  63.8928644   5.6136144  48.3123544  62.9606053
   5.5162991  47.6720895  64.3286607  45.6972015  37.3718301  75.7639645
  45.9277320  38.2991839  75.8196653  46.0392562  37.0905488  74.9153708
  20.8877027  31.1229762   3.5299718  20.9533219  31.6364993   2.7248508
  19.9490990  30.9724654   3.6422275  64.7910323   9.1817119  23.1486107
  65.0052354   8.8696300  22.2694329  65.2312004   8.5664132  23.7350332
  84.8897131  54.0629968  82.4261368  85.6134324  54.4949343  81.9723833
  84.1720110  54.0694402  81.7928170  66.6462275  67.1316700  71.0598364
  66.0601464  67.8783074  70.9362507  66.9446587  66.9127539  70.1770871
   1.1551386  13.3596790  55.8394458   0.5639584  13.8552224  56.4061685
   1.0049286  13.7181973  54.9647268  48.4047468   7.5540035   5.7507080
  49.3533634   7.4366056   5.8014640  48.2809211   8.5031322   5.7433816
  45.6390944  69.8269604  47.2863674  45.3443703  70.0271823  48.1747821
  45.9781014  70.6579268  46.9534994   1.1850320  28.4727050   6.0648405
   1.1115263  29.3911203   6.3243441   2.0861095  28.2337998   6.2821315
  12.8848768  63.9441924  20.5052398  12.0232174  64.2346138  20.8042888
  12.9684235  63.0531159  20.8447021  15.4479682  45.9112461   6.8495623
  16.3519165  45.5964609   6.8451412  15.4276509  46.5714806   7.5423174
  65.0732508  32.7556269  17.6205921  65.7011795  32.3997135  18.2492917
  64.4017394  33.1709290  18.1617284  68.3588682  21.3680358   4.1115215
  68.8178731  22.1417492   3.7845444  67.4582748  21.4769072   3.8060538
  49.4949850  13.1404023  43.0325196  49.3026894  12.2268432  42.8211808
  50.4225389  13.1414315  43.2688976  43.7942535  32.0861115  39.7293145
  43.0182222  32.2014369  40.2776824  43.9376917  31.1398564  39.7132289
  29.3995944  71.2933362   7.0739112  29.4270554  71.7897928   7.8918406
  30.1837322  71.5696657   6.5995677  73.2936298  40.9701362  46.0932481
  73.6074283  40.3947118  45.3956456  72.4782562  41.3375409  45.7520566
  46.3121311   2.7681248   1.5132214  45.5678490   2.5531500   2.0754151
  46.3644026   2.0386419   0.8956825  85.4122343  37.0634701  50.0873711
  84.9632435  36.5829076  50.7828557  86.3211521  36.7680167  50.1403575
  53.0854781  71.2184068  14.4305045  53.4530213  71.1396151  15.3108088
  52.5816578  70.4137402  14.3084036  47.8962812  32.1260383  47.8851149
  47.6724487  31.2294265  48.1345504  47.0620162  32.5949869  47.9030293
  70.3958423  38.2546807  80.3254274  70.7791584  37.8358570  79.5547865
  69.8403002  38.9482468  79.9696592  56.4325635  23.2911563  83.8433098
  57.3776822  23.1492073  83.8965347  56.0669913  22.4182847  83.6994903
   3.7345246  29.3325958  82.0223275   4.0629532  28.6576189  82.6162743
   4.5206485  29.6962376  81.6148896  39.5975714  42.9906001  35.7945012
  40.5178508  43.0283101  35.5339336  39.5865394  42.4034926  36.5504212
  43.3801853  30.5022651  21.5687431  43.1567026  29.8829529  22.2635378
  42.5793149  30.5797658  21.0502530  40.2327082  71.2839983  58.5032531
  40.3125339  70.4979488  57.9628959  41.0860998  71.3702546  58.9281229
  39.9949504   9.5821813  18.9203265  40.8173015   9.4404526  19.3892438
  40.2550058  10.0106916  18.1048622   4.6855991  70.1986833   1.2522263
   5.6366255  70.1398900   1.1609901   4.3427998  69.7699548   0.4680629
  76.9556708  14.1743707  79.3120456  76.3204501  14.6678491  78.7931953
  77.6355899  13.9263531  78.6856041   5.2565267   6.9718914  34.1558287
   5.4586201   6.0373630  34.1105866   4.4011279   7.0526573  33.7339263
  20.1351106  13.9628425  87.7324432  20.8234025  13.3414032  87.4951683
  19.3577725  13.6465823  87.2720555  86.5393965  15.6401289  10.4194268
  87.0365642  14.8222312  10.4094505  85.8173338  15.4741279  11.0254804
  20.9122174  49.1677318  54.8336128  20.3116652  48.4785677  54.5496730
  21.6609367  49.0916448  54.2421214   3.0425894  39.5275908  50.4762680
   3.0594806  40.4437980  50.1996620   2.7638095  39.0471544  49.6967205
  30.7605016  47.0456250  40.2945536  31.0857149  46.1815618  40.0418425
  31.4036487  47.6576591  39.9367716  50.2887807  49.9102977  69.7249315
  51.1012798  49.6480165  70.1576966  50.5023850  50.7391787  69.2964910
   6.3221312  27.3223768  60.4292674   6.2629009  26.8990680  59.5728018
   6.6716203  26.6445791  61.0077823  72.6551512  19.5781570  21.6995605
  73.4089371  19.9126936  22.1854863  72.5044024  20.2286770  21.0137542
  30.3721631  46.4705205  31.3450988  30.0734876  45.7702628  30.7648714
  29.7754493  46.4330525  32.0926018  14.2952865  18.9637243  14.0395142
  13.9042188  19.2418543  13.2112983  14.3099029  19.7565408  14.5756675
   3.0616761   5.7742987   6.2125729   2.6264995   5.6586574   7.0572505
   3.4926427   4.9355303   6.0483561  56.6420881  13.7788427  63.9094304
  56.0748053  14.4771873  64.2361367  56.5427801  13.8149504  62.9580808
  80.4827219  44.0505228  51.5775926  81.1656101  44.3425790  52.1814127
  80.1998154  43.2053331  51.9266631  66.5366983  22.2863646  31.6622445
  67.3996418  21.8873557  31.7733854  66.6584591  23.1980722  31.9271886
  19.2831468  61.3618700  55.0311960  19.0924268  61.1245861  54.1236972
  19.3722275  60.5234387  55.4843288  84.8521164  11.2867150  31.5284668
  84.4124021  11.0391495  30.7150822  84.9852906  12.2314182  31.4507990
  47.1356486  47.7507497  56.0694666  46.1818220  47.8126834  56.0183702
  47.4329762  47.8857810  55.1696918  22.9028153  64.9411895  27.9474498
  22.6840296  64.4654198  27.1461959  23.2945114  64.2806460  28.5188414
   9.2968805  36.2285932  83.4678078   9.4097838  35.2894063  83.3214769
   8.5678097  36.2888759  84.0851032  11.7583575   9.9255878  69.4569446
  11.8485145   8.9726979  69.4467305  11.5279814  10.1540389  68.5564065
   7.9122219   2.7345834  27.1733202   8.5402089   3.4081011  26.9120962
   8.3684466   1.9078900  27.0162565  13.2725228  69.9232371  80.7582494
  12.6445082  70.3911886  80.2079305  14.0925204  70.4046739  80.6484573
  82.6475833  35.2967326  20.6456603  81.8365075  34.8987454  20.3294419
  83.1274583  34.5737695  21.0497346  40.5931052   5.7860752  12.7686030
  41.3204382   6.3046643  13.1125271  40.9784306   5.2760964  12.0560880
   6.5004655  24.7991998  16.2022618   7.3932347  24.4847858  16.0596475
   5.9494091  24.0305513  16.0547894   8.4643811  64.8866488  54.7289863
   8.8046619  64.2088269  55.3129369   7.5923804  64.5765958  54.4846226
   4.0674402   4.7782902  30.5588688   4.4909469   4.5249597  29.7386874
   3.2137519   5.1193927  30.2922281  41.3364196  46.2430800  86.3934026
  40.4916704  45.7968774  86.4528487  41.1123678  47.1594625  86.2313047
  14.2095289  43.2486728  61.3146872  13.9660987  42.8557485  62.1528901
  14.5449267  44.1151629  61.5447632   2.0448519  11.9499428  57.9525102
   1.2302168  11.5691759  58.2805623   1.7763755  12.4796809  57.2018240
  16.7165466  56.3282017  49.6566665  16.8856863  55.5670395  50.2118745
  17.2058388  56.1519667  48.8530707  74.2489793   7.7134322  58.4892495
  73.5160376   7.3069047  58.9515954  74.7308276   6.9780854  58.1106744
  79.9519635  35.8562094   5.3270113  80.2997948  35.0723018   4.9018831
  80.3251542  36.5839664   4.8296882  10.9702043  24.6178846  65.3131882
  11.5380015  24.9842345  65.9911454  10.2549592  24.2050357  65.7971429
  17.9114226  66.4507396  87.3986775  17.2935793  66.4723335  88.1294547
  18.7734962  66.4333358  87.8143193  10.1533845  22.9344327  12.1257382
   9.5751600  23.6438105  12.4062225   9.7532500  22.6029457  11.3218473
  55.1943962  32.0950818  56.8029246  55.5409933  32.4947399  57.6006562
  54.7141910  31.3259061  57.1095245  20.1836904  42.4538147  74.6005522
  19.6707324  43.2017203  74.2943770  20.6681346  42.1632058  73.8278349
  43.4448554  16.8210056  84.3988976  44.1746745  17.2839728  83.9874888
  42.7403544  16.8616744  83.7521703  77.7235526   7.9193967  83.7950210
  78.3313957   7.2028243  83.9774564  77.1331378   7.9303058  84.5483623
   1.2372111  60.3035260  46.4545922   1.7430078  61.0561543  46.7611085
   1.6504651  59.5497304  46.8755970  31.2737193   0.5359438   1.0002469
  30.4444312   0.2613063   0.6089831  31.2463902   1.4923596   0.9727888
  69.0350420  42.0133755   0.7424071  69.0590526  42.1742285   1.6856895
  69.9474090  42.0896717   0.4631274   2.5137102  14.9984821  21.5127655
   2.1155297  15.8168097  21.8094540   2.4241973  14.4045573  22.2580659
   2.4349822  60.8044448  86.2277723   2.5703191  60.1328945  85.5592396
   2.1763792  60.3158200  87.0091826  41.9315446  60.1196708  44.2671762
  41.3636710  60.8818935  44.1541810  42.7719329  60.3901681  43.8972970
  62.7917048   5.5780560  76.4791725  62.6327581   5.8314320  75.5699045
  61.9277380   5.6064577  76.8902523  54.4454414   1.7725835  87.9951802
  54.6477110   1.3127276  88.8099510  53.5476039   1.5120531  87.7896478
  82.8487936  23.5427952  12.6853198  83.4607989  24.2650267  12.5436758
  82.1291141  23.7161955  12.0785039  22.7665385   9.6272975  70.4142232
  22.6972763  10.4054522  70.9673144  23.2812599   9.9145405  69.6600448
  61.7430468  26.7154415  18.1645918  61.8984709  25.7910292  18.3583367
  60.9635713  26.7159542  17.6090293  73.6802216  35.4007980   1.5909432
  72.7612709  35.3575849   1.3265684  74.0959741  35.9468862   0.9237331
  54.3053349  54.4999109  11.2717625  54.0753282  53.8909237  10.5700052
  55.2615998  54.4754442  11.3062662  46.4627417  67.8432203  41.9178677
  47.0690117  67.1421990  42.1571116  46.4911344  68.4478719  42.6593676
  20.6512347  24.6142176  28.6957195  20.3027635  25.1005216  27.9485194
  21.2193272  25.2400809  29.1449387   4.4484940  19.2124441  16.0247551
   4.9652532  19.5728137  16.7453974   3.7350980  19.8392563  15.9047360
  15.8171619  16.4508723  86.6366056  16.3459657  17.2472562  86.5879120
  14.9529750  16.7538548  86.9151992  81.2524529  50.9437202   9.7718443
  81.4641050  51.6193856   9.1277080  80.9107227  51.4279988  10.5234602
  27.4457372  43.5075542  47.1115037  27.7584590  44.1625986  47.7354858
  26.7498514  43.0449993  47.5784273  -0.1265080  49.9193168  88.6956915
   0.4075620  49.3019015  89.1954909  -0.2199211  49.5125239  87.8342825
  74.9357299  30.1071602  42.9713803  74.4950306  29.2710208  43.1226638
  74.2285899  30.7522027  42.9611259  86.7467558   8.2839528   3.7115507
  87.3991339   8.7357088   3.1762460  86.1234722   8.9676239   3.9571990
   0.5387554  12.5070306  28.0900717   1.1862229  12.2239753  27.4443959
   0.0542590  11.7108768  28.3083244  49.2946893  68.0898615  66.4633916
  49.0741199  67.6727185  67.2962017  49.7372963  67.4048955  65.9622404
   4.9747390   7.4356068  18.6981834   4.7107545   6.5765059  18.3688057
   4.2796945   7.6820744  19.3084282  83.5829640  57.6109263  79.0189922
  82.8429091  57.7057210  78.4193552  84.3442582  57.8782551  78.5040182
  66.8043255  22.9677696  77.3986854  67.6849894  23.3427968  77.3945017
  66.6125971  22.7963959  76.4766750  22.3266096  37.1342061   4.8485798
  21.5325286  37.4951413   4.4543806  22.2028025  37.2548621   5.7900392
  31.9176013  68.9198236  57.8534817  31.0709759  69.0750126  57.4347053
  32.3579835  69.7692393  57.8254044  20.5103616  65.5187974  88.2983678
  21.1827930  65.8578987  88.8891961  20.6472346  65.9966058  87.4803233
  22.5339891   0.4887441  58.9930661  22.4238633  -0.0580441  58.2151671
  23.1133532  -0.0180789  59.5620120   7.1826996  69.5094644  18.8196849
   6.9708997  69.0186952  18.0256331   6.5230003  69.2325045  19.4555481
  41.8432200  14.9743386  18.1328689  41.1135731  14.6161230  18.6383674
  42.4581334  14.2454291  18.0503803  61.0235697  17.2591382  57.8839473
  60.7076595  17.9203748  57.2681561  61.6840557  16.7705446  57.3927586
  42.0051570   2.6683614  14.2120167  42.7534288   3.1363195  14.5826059
  41.2419956   3.1651752  14.5069617  76.8204194   1.4969337  57.9673478
  77.6126537   0.9878866  57.7956859  76.7618284   1.5341816  58.9220265
  26.9000351  30.0234640  72.9231247  27.1018772  29.0878318  72.9139638
  27.3543203  30.3589317  73.6959883   4.9389080   1.7088770  77.9172078
   4.6099960   1.1009558  77.2550292   4.4651634   1.4734036  78.7149234
  27.9894830  50.7374050  24.8400731  27.3538142  51.3167920  24.4199926
  28.3566421  50.2231996  24.1210329  22.8145927  71.2771617  22.8526845
  22.6002769  71.6825898  23.6928801  23.4487874  70.5942841  23.0711040
  16.2891542  52.9855682  22.6368234  16.7758143  53.7657799  22.9026492
  15.8144445  53.2556543  21.8507343  21.6293286  45.0101517  73.3632646
  22.0953004  45.6494855  72.8244191  22.3173886  44.4418777  73.7094870
  57.0449731  23.3836103   5.0725750  57.8103028  23.6092137   5.6013523
  57.3720753  22.7466691   4.4373255  23.5670758  33.1904779  74.5086444
  24.4311706  33.5291469  74.7428994  23.4024442  33.5394828  73.6326742
  76.8529224   4.1255746  72.2001154  76.3612516   3.4582255  72.6787978
  77.7090398   3.7267344  72.0444832  43.8363052  40.7366802  76.1596385
  44.0408384  41.2069121  76.9678959  42.9621643  40.3756710  76.3072255
  61.9134847   8.8826757   3.5583743  62.6854936   8.7710386   3.0036030
  61.1733312   8.7110550   2.9761793  59.2687266  53.5169452  82.3518009
  58.9513645  53.6070292  81.4532476  58.8600459  54.2423601  82.8240140
   8.8754200  69.0395831  27.7552341   9.1929514  68.1992005  28.0856318
   9.6431716  69.6108418  27.7765114  64.0349245  16.5829962  71.3688223
  63.0830895  16.5002355  71.4270684  64.3698149  15.9451158  71.9990516
  11.3614920  44.4583959  16.3595200  11.4210083  45.1084920  17.0595662
  10.4842446  44.0867015  16.4517810  81.3836515  37.4573256  12.6396828
  81.1416357  37.5584245  11.7191182  80.6973920  36.9009128  13.0080368
  32.4123829  51.0093637  50.1308965  32.4053907  51.8799046  49.7329752
  31.8648800  51.0982001  50.9110122  49.6867721  40.1392950  55.6635456
  49.2771598  40.6817191  54.9895830  49.7079283  39.2608685  55.2838733
  33.1002229  62.3362306  83.9773665  33.8666111  62.6301351  83.4849225
  32.8043655  61.5522956  83.5146073  45.8254376  68.1969986  27.6500080
  45.8635765  68.8212871  26.9254108  45.5417772  68.7185607  28.4008353
   3.2447249  51.9551863  87.4140876   3.4721899  51.1444152  87.8692158
   3.5610436  51.8248647  86.5201130  67.7883479  20.9464506  75.7442714
  67.7200831  20.9518462  74.7895240  68.6614663  21.2951840  75.9239409
  70.5055074  35.0242664   7.3170271  71.0311980  35.6607642   6.8325153
  71.1482028  34.4742540   7.7649789   5.4590946  50.1268663  57.7463342
   4.8372335  49.5076226  58.1285092   4.9213491  50.8724218  57.4794847
  61.5528281   0.4526541  23.2587354  62.0610347   1.2636281  23.2420283
  61.2753556   0.3251485  22.3515512  21.1400692  53.4094603  46.3208284
  20.2961551  53.1731237  45.9358792  21.1182078  54.3647104  46.3778468
  67.7929432  27.5674959  74.3186295  67.7470733  28.4775191  74.6118625
  66.8947499  27.2456084  74.3952390  78.7950397  22.0654761  79.9793159
  78.7523175  21.9946029  80.9329320  79.4132391  21.3837924  79.7159365
   4.9726093   1.1085678  56.3772970   4.9682497   0.5277100  55.6164967
   5.7966008   1.5904288  56.3060242   3.6459867   8.5430992  64.1507171
   3.3332763   8.2406300  65.0033345   3.0933856   8.0857658  63.5169111
  13.5804818  18.7649118  82.5470378  14.4772195  18.7063754  82.8766843
  13.6776493  19.0455318  81.6370693  34.0289446  64.7543120  49.2133870
  33.2824326  64.9405128  49.7828436  33.6357625  64.4674840  48.3891483
  -0.1658833  46.1066472  20.1325553   0.3211024  46.9299206  20.1685802
   0.4908943  45.4321099  20.3053976  63.5214590   2.5088356  39.5671706
  64.1583844   3.0460781  39.0960778  62.8242485   2.3505788  38.9307085
  39.4215703  44.1407095  66.9270715  39.2047389  45.0613895  67.0739194
  38.6455134  43.6623789  67.2189058  80.9951070  18.2905938  66.7717101
  80.7347104  17.4306014  67.1016170  81.8436478  18.4576296  67.1819654
  81.6217337  38.4860264  41.5148525  80.7822010  38.3695705  41.9596611
  81.4192832  38.3688995  40.5866677   5.5096186  63.2726596  33.0544021
   5.7547113  64.1874027  32.9150954   4.7254014  63.1506579  32.5192846
  43.4296787  56.3609382  85.0750162  43.9065751  55.5572005  84.8681167
  44.0162587  56.8444957  85.6566758  36.8425797  51.5060823  83.6902084
  36.0023091  51.2273137  84.0541662  36.6130158  51.9668542  82.8832254
  62.2040018  13.8853966  55.5589870  62.2386704  13.0553970  55.0834552
  63.1172249  14.0780156  55.7714798  67.8854785  31.5307706  74.2169082
  68.0359733  31.5739251  73.2725985  68.6279249  31.9984416  74.5993856
  55.6202637   1.3770136  58.2944638  54.7072489   1.0955058  58.2362466
  56.0718653   0.8655752  57.6231080  46.1142155  43.2257109  80.4099818
  45.7993646  44.0961754  80.6536872  45.6457548  43.0193352  79.6011645
  42.5694284  41.8200827  63.8583183  42.9457703  40.9476510  63.9743424
  41.7429975  41.7904744  64.3403630  71.6915130   2.9411544   1.3587929
  71.5416627   2.1568319   0.8309531  71.7205109   2.6211198   2.2604407
  60.2280847  24.3757239  42.1405674  61.1736034  24.2613233  42.0449709
  59.8753868  24.1923202  41.2698210   6.0809087  43.6935576  74.9521157
   5.5078101  44.0715653  74.2851075   6.7783466  43.2665872  74.4546135
   0.0844375  60.3418985  20.9032068   0.9222893  59.8812965  20.8575781
  -0.2774140  60.0970494  21.7548782  84.4226449  21.4109563  87.4410520
  84.2624389  21.5991021  88.3658044  85.3708004  21.2941387  87.3811638
  63.9750853  63.3082044  81.0228385  63.8660332  64.1360706  81.4907884
  64.7719027  62.9274963  81.3921286  79.5683504  44.5164621  12.2308329
  80.2197430  44.4608933  11.5316680  79.6050099  43.6620530  12.6608014
  53.4510069  37.5308779  43.1191880  54.2318619  37.7670083  42.6184489
  53.6570133  36.6747991  43.4945842  31.0089469   0.2615988  25.2903275
  30.6226616   0.5748776  24.4724816  30.2878363  -0.1746000  25.7441577
  77.7000518  19.6661995   9.0513561  76.9494052  19.0872777   9.1840632
  77.6209096  20.3233384   9.7428305   1.5846933  28.9853766   0.2841644
   2.4232689  29.4406307   0.3601020   1.4072324  28.6613765   1.1672065
  82.1294510  16.0947936  50.8437885  82.7907853  15.4169384  50.7045726
  82.5432167  16.7129702  51.4461899  60.1777825  38.9001339  81.1437210
  61.0436551  39.0442305  81.5254705  59.8842958  39.7721365  80.8796966
   7.2010724  17.6512325   4.8038551   6.3894315  17.4858149   5.2835506
   7.6009947  16.7872568   4.7046586  55.4231303   3.5973911  77.0626085
  54.4802267   3.7396197  76.9793274  55.4999573   2.8120996  77.6045002
  38.1511331   1.1356156  36.9136204  39.0057289   1.4967428  36.6780680
  37.6186200   1.2472643  36.1260950  51.7685938  60.3369621  20.5279473
  52.2483507  59.6624278  20.0472511  52.1978762  60.3730202  21.3827270
  39.7013303  57.1651561  14.0520748  39.2524177  56.3415256  13.8614391
  40.1265047  57.4025138  13.2279875  35.3441718  15.3367347  13.5806585
  36.0538711  15.1886260  12.9556606  34.9980587  16.1988851  13.3501496
   7.2950708  63.9053834   6.0993986   7.7732923  64.7296197   6.0090071
   7.9751153  63.2495301   6.2531119  52.9935584  17.7765163  68.8209971
  52.5744375  17.4118354  68.0415246  53.3692769  18.6057006  68.5251579
  11.9812844  59.7667324  11.1686509  11.3424443  60.4758212  11.2415086
  12.3786398  59.8899805  10.3065891  65.1196894  44.6524796  63.1084819
  65.7593829  44.1302743  62.6244099  64.3066353  44.1508723  63.0487742
  54.5928251   6.8283473  44.5159103  55.5129373   6.6259156  44.6851638
  54.3548702   7.4525190  45.2014896  77.3645943  11.6167235  40.7020987
  76.4506464  11.8015989  40.4858764  77.6765945  12.4157828  41.1268245
  12.1445228  28.4048433  58.8865326  12.7399920  28.2372419  59.6169832
  12.3325193  29.3066086  58.6263240  66.9572393  26.0539111  64.6112357
  66.6202255  26.2025830  63.7277481  67.8112836  26.4861132  64.6176786
  30.7414061  54.5214339  66.6299639  30.6517787  55.4645891  66.4933728
  30.6220675  54.4034937  67.5723440  68.3257883  50.5185253  59.1866905
  68.7105806  49.9689970  58.5039128  67.7681932  49.9230844  59.6874596
  15.4092215  69.3657987  83.9489214  15.3283135  69.0208251  83.0597201
  14.9847465  70.2229741  83.9128229  36.8343117  24.9080324   2.6038043
  37.2603842  25.4898148   1.9743416  35.9920451  25.3256363   2.7838762
  53.6579740  34.2784828  58.3059558  53.9767346  33.5887571  57.7238029
  53.1706922  34.8698536  57.7323105  64.9338287   6.7742246  24.5744819
  64.8581223   7.4470516  25.2510941  65.8347772   6.4596839  24.6492343
  65.4146717  63.0537633  69.9666167  64.8460508  62.3086547  69.7724125
  66.0660411  63.0471676  69.2652564  50.4790447  46.2821843   6.3744526
  49.5546944  46.1732404   6.1509810  50.9010354  46.5070547   5.5452428
  74.1458914  61.2631416  62.0490563  73.2444739  61.2772829  61.7273757
  74.3225198  60.3392047  62.2261856  42.6736481  56.2245999  48.5921246
  42.4990153  57.1363884  48.3589359  42.1256385  56.0647029  49.3604672
  31.5685409  38.8229767  21.1418537  32.1448410  39.4128827  21.6277764
  30.7869059  39.3456080  20.9625912  21.5788021  18.7199896  68.4000613
  21.0808860  18.1853211  69.0184795  22.2396339  19.1558075  68.9382025
  51.3100780  25.9467974  25.9753159  51.1138116  25.9457255  26.9121778
  51.0038245  26.7998169  25.6674226  82.6846417  17.6814808  87.3708563
  83.4273119  17.1073576  87.5580874  82.9833892  18.2309458  86.6462391
  66.0943559  28.4927059  49.9445432  66.4602206  29.0375009  50.6413741
  65.7024399  29.1166288  49.3335162  81.9395014  29.1939301   1.9689793
  82.2105038  28.9840292   1.0752617  81.1381061  28.6875179   2.1014338
  73.8747999  19.0329284  85.2182396  73.7754711  19.9571136  85.4468160
  73.5622978  18.9745776  84.3153722   6.7935025   1.6660647  15.9062225
   7.0631363   1.3885394  16.7817276   6.9248323   2.6142109  15.9044669
  55.1512159  26.0299896  79.6716534  55.6331454  25.2794395  79.3243059
  55.8307355  26.6257206  79.9872315  37.0602042  37.0592199  65.5272329
  37.2882976  37.7446238  66.1552669  37.0113470  36.2601661  66.0519784
  33.6216201  41.1352447  62.5692073  33.6990282  40.3857186  61.9789104
  33.3467641  41.8575352  62.0044219  17.1512906  24.4224234  75.2297249
  16.8310795  23.9486441  74.4621118  17.6360285  23.7666436  75.7309373
  76.8967666  52.0014514  43.4041842  76.4883948  52.3030474  42.5927015
  77.8370560  52.0524573  43.2324691  27.4600009  56.8608409  13.4405953
  26.8635359  57.1379272  12.7451210  27.0421676  56.0880814  13.8207136
  69.4135441  46.1347173  75.8642402  69.3921062  46.5377816  76.7321754
  68.8455051  46.6886804  75.3288074  14.8346819  11.5130590  70.1661789
  15.2603781  10.7067003  69.8749744  15.5444358  12.0389091  70.5349105
  85.4524055  53.8906270  48.8551237  85.3911705  52.9533186  49.0393382
  84.8199556  54.2934678  49.4500676  20.5000525   0.0690384  50.6869629
  19.7048223   0.4008936  50.2701741  20.9068106   0.8427672  51.0769931
  52.3979519  45.7415195  36.9934755  51.9461060  46.5386665  36.7166656
  53.0946437  45.6245388  36.3475901  81.4703946  62.5025563  85.7062597
  82.0950932  62.7674007  86.3814197  80.7445957  63.1201287  85.7959930
  30.4051548  35.3334033  14.6920144  29.6188221  35.7639796  15.0274497
  31.1155533  35.9433033  14.8909812  46.5526752  66.7956500  23.0731271
  46.1376574  66.0870734  23.5649719  46.9832204  66.3574815  22.3390487
  27.5351936  62.1124660  57.4306139  27.3346772  61.2025703  57.2112631
  26.6837188  62.5062141  57.6208372   2.1433697   6.9713487  51.4603495
   1.9845806   7.5343114  52.2180374   2.2607530   7.5794758  50.7305315
  21.5563137  55.0800127  11.3463601  20.8473974  55.2489433  10.7257701
  22.2587605  54.7089987  10.8123667  56.5606336  59.6294273  61.5609289
  57.1888925  60.2530917  61.1968337  57.0141362  58.7870364  61.5301910
  47.0530007  68.6348386  76.8607910  46.3896212  69.1845584  77.2778855
  46.9362520  67.7732128  77.2610441  79.9797988  28.6791856  49.9863627
  79.4709055  29.0119424  49.2470844  80.5058604  29.4265847  50.2707665
  11.4460048   4.3929927  50.3659683  11.9428771   4.2634208  51.1737807
  11.5398481   3.5667382  49.8919125  66.8016635  24.1038657  25.2206660
  66.3100840  24.6802849  25.8057492  67.1585504  24.6888561  24.5523474
  34.9863772  32.2652886  76.5985748  34.8620317  31.3496032  76.8481552
  34.1688715  32.6951555  76.8498329  18.5298060  57.9909614  42.8729844
  18.5408652  57.1935134  42.3436582  18.0073507  58.6098396  42.3628255
  35.4985694  46.2019628  34.2718832  35.0304864  45.8338547  33.5224656
  35.6028274  45.4655362  34.8744095  49.1516826  63.0561245  33.4014087
  48.8981563  63.3497945  34.2764596  48.5898336  62.3002973  33.2302868
  13.9851920  60.7607566  52.9793337  14.6457027  60.4808719  53.6130702
  13.3521646  60.0430183  52.9603616   7.4951263  56.9557104  41.0674270
   8.4160584  57.2084759  41.1324305   7.4306488  56.1512533  41.5821339
  79.8949249  52.1252228  13.9702748  80.3843014  51.3566586  14.2636203
  79.3926387  52.3969004  14.7384751   5.8867152  14.0785270  63.5390637
   5.1195867  13.6573960  63.1512565   6.2929653  13.3937021  64.0702958
   5.2994018  47.4909856  10.5767081   4.8466704  47.3355633  11.4056291
   4.5978261  47.5521112   9.9284127  11.4565753  62.5201819  23.2743175
  10.7236988  61.9044823  23.2681576  11.0849827  63.3381562  22.9440617
  67.2783262  26.6478106  47.6180587  67.2714611  27.5076244  48.0386593
  66.7417890  26.7607002  46.8334469  68.7452093  24.6462214  17.8928060
  69.6721710  24.5024902  17.7022406  68.5504533  25.4994037  17.5050149
  69.4453730  34.1731380  57.0216083  68.4899494  34.1158469  57.0108671
  69.6580777  34.4611846  57.9093119  53.3907990  53.7524679  36.6647374
  52.4876895  54.0308523  36.8168139  53.3919046  52.8183578  36.8737087
  52.2805174  57.3415784  77.1879168  51.3815202  57.1001623  76.9648605
  52.7603603  56.5133954  77.1781432  72.9760357  17.0544174  60.1176682
  72.5991648  16.2290818  60.4226621  72.8743788  17.6522866  60.8582424
  57.7353375  44.0158609  35.1499123  57.1801655  43.9174617  34.3763921
  58.2064631  44.8361817  35.0038089  84.8776765  48.0117337   6.4169939
  85.0850356  47.3773469   7.1031335  83.9243165  47.9768786   6.3387527
  49.6578882  27.3758991  31.2982257  49.8226792  26.4436534  31.1568268
  49.9713502  27.5423985  32.1871865  47.3181691  61.9390485  83.5019639
  47.1192865  61.1406673  83.9911112  46.6754056  61.9518319  82.7927929
   3.6757120   4.9153224  21.3492908   3.3049733   4.1273827  21.7467020
   2.9270887   5.3554908  20.9467404  66.4972745  40.2686524  60.7632736
  66.0953628  40.7502138  60.0402262  67.4349762  40.4376353  60.6716655
  22.6400989  65.9568602  71.7405242  23.3700357  65.9538123  72.3597292
  22.7834480  66.7372688  71.2051315  56.4293990  71.2948570  72.8424372
  55.6687031  71.1933056  72.2703700  56.2475999  72.0896992  73.3438420
  39.9283086  24.1264200  67.1926830  39.9387386  23.8954486  68.1215400
  39.0870401  24.5646086  67.0642701  85.5081611  52.6383998  56.0178467
  85.4959535  52.3462567  55.1063999  85.8248672  51.8798439  56.5082771
  55.1935706  58.8875049  17.3838700  54.7513909  59.3273202  16.6577354
  54.4824637  58.5386684  17.9213379  29.5481943  59.0787386  72.7295583
  29.6915411  60.0229512  72.7939488  30.1933756  58.6973781  73.3249885
  77.2598997  71.1674501  62.1182812  76.9516246  70.9750320  63.0038170
  76.4646351  71.1823468  61.5857737  65.1527345  12.2921825  88.6990131
  64.8863993  11.7232234  87.9768061  66.0462341  12.0167136  88.9039693
  44.3362924  69.7758093  38.2554754  43.5957591  70.0413371  38.8007619
  43.9545318  69.6226375  37.3911669  19.9757687  57.8183242  39.8474894
  20.4892819  57.7847506  39.0403904  20.2060396  58.6589860  40.2430837
  51.1967097  54.4260455  55.7387476  50.7350186  55.1275828  56.1980064
  50.7138589  53.6318064  55.9673765  52.4623721   4.5459052  46.5809580
  53.0560253   4.6158650  47.3285631  53.0395918   4.4214856  45.8275862
  41.9112135  41.8450446  53.7969959  42.8503520  41.6627398  53.8288629
  41.6201204  41.7617820  54.7050510  33.6319991  23.4624680  87.1848697
  33.0965984  22.7748903  86.7888712  33.0564334  24.2266963  87.2150532
  17.5645687  55.1133434  69.8458223  17.8697269  55.1420706  70.7526217
  17.5467388  54.1813048  69.6285252  37.8703230  65.0066956   0.7393268
  36.9249824  64.9171831   0.6187019  38.0095886  64.8407083   1.6716814
  51.1856764  41.1393176  75.8679052  50.6017749  40.6022490  75.3323230
  51.7099270  41.6285449  75.2338313  75.8765900  58.5885840  52.6369028
  76.7236835  58.9877360  52.4385542  75.6346715  58.9511120  53.4891239
  58.6251116  36.5008507  28.5859788  57.8971250  36.6459110  29.1903173
  59.2581863  37.1845369  28.8051168  47.0712489  67.5130486  72.6977096
  46.2090039  67.3717936  72.3067974  47.5074222  66.6637770  72.6289888
  71.6246702   9.0394929  82.5726566  71.9149269   9.6427047  81.8884648
  72.4351382   8.6982089  82.9506761  43.3502608  41.3892406  11.7742413
  44.0350917  40.8364082  11.3979240  42.6290857  41.3375619  11.1469713
  69.8614167  11.5388234  22.6028337  70.7509633  11.4856244  22.2533935
  69.8417870  10.8913176  23.3075200  55.1445777  47.7156392  32.6793915
  54.6658305  47.1333242  32.0895252  54.8110672  48.5895135  32.4760534
  71.8977497  53.4114548  26.3958152  72.0555003  52.6682755  25.8135515
  71.0442580  53.7503565  26.1257609  19.9711193  67.3554863  78.0859742
  20.0245408  68.1715752  77.5886043  20.6227932  66.7842004  77.6795441
  38.3309819  38.5211223  68.5030015  37.7552938  38.7630392  69.2284608
  38.9820307  37.9406247  68.8971968   5.9945153   7.8179465  53.9592156
   5.6320497   8.6305690  54.3120542   5.6818861   7.7889959  53.0549719
   3.9176870  42.7159393  12.6425047   4.3028950  43.3745361  12.0644936
   4.6674815  42.2274547  12.9822441  44.3447636   6.4663027  80.5352720
  44.8056447   6.6299732  81.3580918  43.8009267   7.2434363  80.4066772
  50.5699775   5.0955733  13.7589286  50.9727577   5.3627156  12.9327114
  50.9283003   5.7019182  14.4071435  25.0616680  49.2859638  27.5086906
  25.4279841  49.5494677  28.3528529  24.1787049  48.9798464  27.7158143
  72.6665049  43.9491171  65.0741232  72.4647531  44.5652905  64.3699511
  72.5047310  43.0867733  64.6914690  44.5782921  51.6934773  30.1051322
  44.0982193  50.9266601  29.7924771  43.9476845  52.4111943  30.0464110
  65.0131851  58.8954469  29.5296906  64.1828269  59.1684244  29.1395362
  64.7609115  58.3178788  30.2501106   9.9538056  69.2249175   9.8438654
   9.3444476  69.9625655   9.8157582  10.8139225  69.6191189   9.6988276
   4.7769177   3.8357732  62.6878924   5.2285241   4.6737926  62.7879274
   4.7298252   3.7005528  61.7414625  63.8251159  60.9465511  79.0480330
  63.4763030  61.5459623  78.3882849  63.6078505  61.3582259  79.8844250
  20.7012370  39.9011734  12.6186484  21.5318304  40.3735227  12.6755041
  20.0368932  40.5890278  12.5769893  14.7244134  12.5207293  82.1414273
  14.1241109  12.3905996  82.8755492  14.1867125  12.3734463  81.3633416
  14.1079270  51.5994539  72.3524199  15.0180521  51.8663871  72.4814583
  13.9787149  51.6392238  71.4048153  31.0233133  63.0268208  80.1011555
  30.8530185  62.1245535  79.8307018  31.9623861  63.0484794  80.2852889
  47.4875928  27.3119923  83.2546702  47.9703170  27.6268973  82.4904425
  46.9720901  26.5756384  82.9256236  21.8366124  70.5086984  84.1181530
  21.6247739  71.4387749  84.1976135  21.0352426  70.1085099  83.7806810
  56.4965990   6.0040969  49.7757775  56.0969087   5.2614060  50.2284249
  57.3298895   6.1393247  50.2269673  72.9716449  39.2856837  19.5850261
  73.5279716  38.9802353  20.3015691  72.6031492  38.4857305  19.2101692
  24.1094710  19.9758750  78.9972537  23.2503210  19.9712949  78.5752677
  24.0285163  19.3446010  79.7122162   1.0938008   9.2710650  26.8092791
   0.8733626   8.7868791  26.0135386   0.4752958  10.0014467  26.8243119
  15.6539575  33.4601917  68.5507997  15.6658916  34.3847444  68.7983715
  16.5703719  33.2477589  68.3739138  56.1255622  62.4622798  83.9034768
  55.2033893  62.2868291  83.7162708  56.4354152  62.9527488  83.1421206
  83.3430190   5.1821282   9.3513722  83.0387700   6.0081381   8.9753772
  82.5987173   4.8625916   9.8614144  41.0889189   6.1982396  85.6413668
  40.1905504   6.2986874  85.9561305  40.9964518   6.0239242  84.7047261
  33.3201747  18.7217082  76.9978192  33.0061326  17.8304763  76.8451266
  33.0415186  18.9241272  77.8909089   7.8312201  61.0159494  55.8322956
   7.1478386  60.3922507  56.0776962   8.5646638  60.4691230  55.5507408
  58.8665145  34.7856020  59.9128138  58.1757321  35.1422480  59.3543739
  59.0756906  33.9369448  59.5226112  35.0521864  20.6255547   5.4446639
  35.6501448  20.6273698   4.6972188  34.3396869  20.0437334   5.1799750
  58.5862957  50.2945865  38.2183300  59.2405710  50.8348383  38.6613691
  57.9335794  50.1074399  38.8929924  54.9848945  36.6901753   0.4296482
  54.9842571  36.1478785   1.2184104  54.3445820  36.2741572  -0.1475525
  25.8483011  61.4844050  29.4385307  24.9150575  61.6180065  29.2728835
  26.1903791  61.1367418  28.6149139   6.3715290   6.1866517  21.9113927
   6.6596779   5.6084664  22.6177240   5.6213372   5.7358339  21.5238268
  26.9638376  65.8084375  32.1585564  27.7931266  65.8774897  31.6855411
  27.1573933  65.2329833  32.8985702  63.4295871   3.0236482   4.8704632
  64.3747205   2.9866635   4.7235389  63.3397192   3.2297105   5.8008899
  60.7182438  43.9421435  26.9100371  60.1357192  44.5697292  27.3378608
  61.1874144  43.5212390  27.6304190  61.2659511  56.2640179   5.8473003
  60.6727533  55.7319090   5.3170095  60.9971449  57.1663730   5.6748755
  70.9482293  41.9845276  27.7093590  70.6978743  42.3950526  26.8816975
  71.0292402  41.0539594  27.5002852  39.7567360  28.2262160  71.7489224
  39.3369130  28.7624965  72.4215171  40.0518161  28.8553440  71.0906235
   0.4278393  27.7268802  72.0198172   0.3486066  28.4155649  72.6798682
  -0.0370718  28.0713208  71.2572884  11.9709295  13.5295295   5.6887319
  12.2848563  13.9378480   4.8819123  12.4232783  12.6866269   5.7223111
  32.7256487  69.3528971  21.4372126  33.4642227  69.2145978  20.8442426
  32.7848768  68.6331706  22.0654782  59.9408211  46.0797232  83.6962463
  60.8295670  45.7519607  83.8338484  60.0164462  46.6692619  82.9459418
  59.8747529  27.3428848   7.9752327  60.0609652  27.9936285   8.6520558
  60.3260119  26.5526613   8.2721233  76.7006129  17.0723464  54.0707372
  76.0770540  16.8989084  54.7759502  77.5306592  17.2337803  54.5192837
  22.5079762  60.8320989  34.2492244  22.8957876  60.8329928  35.1243435
  22.2990296  59.9132952  34.0807817   7.4074335  67.6397035  76.0622730
   6.6731112  67.0550489  76.2498405   7.0049656  68.5006004  75.9477836
  77.7098378  40.3310142  16.5024194  77.9571695  40.3287812  15.5777282
  77.8381121  39.4260951  16.7868469  41.3005343  67.0255517  54.8556118
  40.8991561  66.2284539  54.5095447  42.2419644  66.8791819  54.7633239
   9.4910724  10.4465932  21.9677277   9.5509012  10.4719676  22.9227190
  10.0046225   9.6790831  21.7158818  80.1616467  15.8048780  38.8737809
  80.3228011  16.6102633  38.3822368  79.2675477  15.8995608  39.2021924
  66.7983976  28.7541488  27.8788125  66.5128945  28.9310722  26.9824767
  66.0911737  28.2313752  28.2566669  66.9890259  71.6775089   8.2139022
  67.1177522  70.8389971   8.6572522  66.0659653  71.6752621   7.9605528
  62.8295043   6.2838957  44.8507369  62.1948998   5.9649803  45.4924549
  62.4082433   6.1369742  44.0038692  57.6813419  30.1437898  75.9961995
  57.5848542  31.0958921  76.0167703  56.8624120  29.8120498  76.3643491
  28.5693418  18.9410907  72.2336533  28.6899356  18.0953127  71.8019722
  28.1762166  19.4987516  71.5623123  58.1580103  35.2467143  39.7746172
  57.7922434  35.4431424  40.6370917  58.5089726  34.3602346  39.8595349
  55.1669809   7.0108658  47.7479177  55.0189833   7.9470235  47.8818480
  55.6111943   6.7221443  48.5451292  17.0186555  51.1298910  53.2738904
  16.7502153  50.3993257  53.8310673  17.7236355  50.7727599  52.7338048
  48.6316261   8.8146460  79.8965947  48.4170196   7.9180293  79.6391958
  49.4437503   8.7324398  80.3965229   7.4235292  70.7566681  73.8979103
   7.4415308  70.5061366  74.8215671   8.3265855  70.6435036  73.6014058
  29.0420846  71.4580199  60.2685505  28.7647464  71.5246501  61.1822659
  28.2464943  71.2176681  59.7936832  56.3654484  16.6497503  77.5620512
  56.8295435  15.8868606  77.9067932  56.6772886  17.3809389  78.0952967
  63.7540368  69.9023244  23.1569845  63.0480241  70.4755032  23.4557218
  63.6462666  69.1018639  23.6706774  46.7964644  23.5277736   0.5415532
  47.2346186  24.0838766  -0.1026535  47.5061309  23.0385154   0.9577644
  24.0524005  44.4324172  68.9768957  24.4498987  44.6784173  68.1416048
  23.3021729  45.0199568  69.0673807  20.3551507  33.8541515  35.5376934
  19.7915575  33.9337640  34.7681114  19.7686926  33.9994541  36.2801124
  25.5339717  46.5598616  85.9512091  25.5307514  46.9375917  86.8307212
  25.2233304  45.6629203  86.0746194  75.0780318   5.1911547  52.1807556
  75.2342828   6.0354496  52.6038200  75.9532187   4.8410004  52.0144075
  59.2587555  24.1512264  27.9877869  59.2622622  25.0029598  28.4245589
  59.3798350  23.5185042  28.6957659  31.6302917  24.5499414  73.5486659
  31.8896137  24.5370662  74.4699792  31.1106265  25.3485803  73.4572557
  15.4219370  66.2307928  64.7933314  14.6641738  66.0242468  65.3404744
  16.0469870  66.6374372  65.3934853  75.1276875  54.5297519  69.0314450
  74.3773503  55.0978192  68.8567295  75.5102840  54.3663891  68.1693752
  22.0348449  55.3099632  67.2111525  21.9353229  54.4308280  66.8458464
  21.1402182  55.5941642  67.3985149  81.2095084  25.4654618  79.1100900
  80.4120810  25.3467810  78.5940898  81.1305827  24.8308568  79.8223254
  22.1737367  20.2767003  33.1986397  21.6060222  19.5060445  33.2033123
  21.9970828  20.6992263  32.3581060  28.7524693  57.4233715  45.0906639
  28.0399623  56.9993336  44.6123779  28.3123628  57.9598360  45.7500150
  71.8104285   1.9393389  76.9206090  71.0230853   1.4729477  77.2013257
  72.5326218   1.3651566  77.1755270  41.5979196  28.5848522  87.0995850
  41.6515482  28.5145851  86.1464752  42.2341479  27.9469802  87.4229498
  69.3955660  35.9026650  64.8973282  69.7498966  36.2887018  64.0962931
  69.1077711  35.0283004  64.6348542  17.2899475  64.5289017  77.7087048
  17.6889995  64.8739324  78.5074182  18.0213500  64.4291554  77.0993339
  62.9516851  15.5215229   5.0789382  63.8344227  15.5585361   4.7106500
  62.8944758  16.2935491   5.6419075  70.1689599  16.4139550  77.6908152
  70.6234622  15.6630246  78.0726044  70.8492259  16.8876416  77.2121808
  68.1430400   8.4469224  18.2927709  67.8548390   9.2433065  18.7388027
  69.0248929   8.2893040  18.6300003  74.5660497  20.5290607  46.4261648
  74.5977363  21.4060330  46.8084570  74.0377115  20.0190696  47.0401678
  60.2175245  70.3723211  73.8966908  60.9386645  70.0942732  73.3319977
  59.7682349  69.5596837  74.1290507  80.7717312  24.6215038  84.9037886
  81.3146418  23.8959662  85.2121312  80.6746475  25.1896289  85.6680140
  59.4974068   3.3395291  36.6632048  58.5962214   3.0196057  36.7049872
  59.4110873   4.2903883  36.5950326  71.8364293  19.2280520  18.6217785
  70.8874874  19.3391652  18.6800441  72.0488620  19.4538665  17.7161781
  44.8801982  21.3303245  87.4432285  44.6889915  21.2517576  88.3778402
  44.1853927  20.8312341  87.0138265  55.8361086  71.3616732  55.6629630
  55.4192522  71.6890756  54.8659246  56.7653634  71.3037247  55.4407934
  21.2229777  56.1630435  55.8562717  21.2690781  56.7550005  55.1054764
  21.2794940  56.7386784  56.6189526  35.6625773  53.1539668  47.1329511
  36.4525446  52.6397752  46.9662463  35.7732407  53.9422135  46.6013001
  25.3687067   9.3214484  15.5473177  25.8090531  10.0972342  15.8944249
  24.6814795   9.1304056  16.1856383  15.3594599  58.4398355  44.0320320
  16.3092632  58.3913791  44.1404637  15.1181059  57.5942402  43.6539465
  76.9849914  51.3222459  12.9577678  76.6799824  50.9356812  13.7786022
  77.1100166  52.2491337  13.1614329  42.8483862  21.9759432   4.9997868
  42.5166684  21.1651720   5.3855915  42.1285277  22.5993544   5.0967095
  51.7828028  37.4123196   7.7043397  52.6232454  37.6395706   8.1021400
  51.5910384  38.1425901   7.1159833  53.5806151  43.8999178  32.6179472
  53.0662701  43.1818483  32.2490881  53.0818085  44.6876772  32.4014780
   2.5990972  36.4450998   4.7464781   3.0280417  36.2112674   3.9233373
   1.7965940  36.8933495   4.4794715  62.6666637  69.3662599  75.8762266
  63.5188407  69.2998966  76.3070654  62.0408719  69.0669039  76.5357738
  69.0198598  29.4868862  12.8659760  68.8195663  29.3698839  11.9373077
  68.1725285  29.6678874  13.2727930  24.0353744   1.6722177  50.4984344
  24.7989737   2.1270560  50.8537796  23.3270981   1.8815421  51.1073350
  21.5727681  16.9009597  75.7462323  22.4775259  17.1013364  75.9860123
  21.5618925  15.9515949  75.6244950  78.0334557   3.4790152  17.7020750
  78.9439033   3.7562230  17.8044119  77.5823674   3.8543336  18.4583073
  47.6962025   4.7916764  88.6448410  47.2426578   4.3250309  87.9428645
  47.3084731   4.4486556  89.4499711  42.8214214  51.5660790  84.2920931
  42.0756685  51.6962459  84.8778756  43.0192569  50.6320218  84.3601373
  52.7405381  11.6335595  79.8209312  52.0352161  11.8259188  80.4387909
  52.2952451  11.2752632  79.0530968  37.8323766  64.0894564  63.9216341
  38.7200650  64.4299903  64.0324399  37.7488146  63.9405074  62.9797936
  71.2058693  62.7225947  12.0321594  71.9473410  62.7787239  11.4294148
  70.6165050  62.0856534  11.6281950  52.1227018  61.8595967  80.2939713
  52.9188032  61.8789079  80.8250848  52.0080127  60.9366035  80.0677817
   0.2182218  43.2072493  60.3478481   0.4351121  44.0470063  59.9428805
   1.0335669  42.7069983  60.3133064  83.7304162  62.5962695  44.2734251
  84.4178583  62.8529914  44.8880381  84.0268666  61.7579879  43.9189778
   5.3610310  19.6739559  80.2203051   5.5105895  18.9820897  80.8646538
   4.5783110  19.3941018  79.7456865  24.5387211  30.8654563  18.8730621
  23.8222131  30.2345159  18.8040512  24.2110301  31.6492014  18.4319340
   3.0509515  24.6117911  57.9020494   2.5648904  25.4363763  57.8960749
   2.4881996  23.9986134  57.4292332  39.8652184  52.9781739  15.4858867
  39.9971486  52.1225166  15.0776259  40.1942674  52.8710250  16.3783427
  64.5764140  57.4157261  55.6111057  64.3261780  56.9072844  56.3825334
  65.3219593  56.9413974  55.2431297  83.7585376  16.6112491   7.2013598
  83.2537325  15.8678547   7.5311602  84.6581970  16.2877999   7.1541848
  32.9502702  28.2232278  75.6513699  33.5756633  28.6346488  76.2478999
  32.4344602  27.6410940  76.2093055  13.1999255  59.3805407  23.6125692
  13.6501636  58.5499952  23.4585833  13.7569795  59.8423821  24.2391672
  82.5326072  50.4597004   5.7027018  81.9057389  50.0594132   6.3052282
  82.4154836  49.9808341   4.8822136  14.4512759   5.8180980  12.2067722
  14.0924299   4.9624015  11.9717297  14.8552578   5.6812302  13.0636839
  41.7130693  69.2285310  18.8496401  42.2409988  69.6291906  18.1589924
  40.8133917  69.2877394  18.5282269   6.7818079  38.0397077  23.3776584
   7.7051586  37.9289966  23.1509463   6.6670182  38.9865096  23.4590303
  65.2591039  52.4277357   5.5560128  64.8738461  51.6331622   5.1866064
  64.6312505  52.7118425   6.2203284  60.2270261  11.0979609  65.1880087
  59.6660990  10.7218956  64.5096522  60.0854726  12.0421600  65.1195806
  34.5446884  29.1810551  87.2175997  34.9729416  29.9642586  86.8720229
  35.2633384  28.6390003  87.5431004  75.0805577  56.9037937  16.1438708
  75.9011583  56.9812111  15.6571953  75.3036822  57.1750245  17.0343096
  52.1995572  21.2763164   3.1879838  52.9954841  21.7188808   2.8932484
  51.8542161  20.8551511   2.4008427  59.7413822   0.2374039  31.2125701
  59.9888960   1.1247896  31.4724072  60.2168674   0.0855810  30.3958110
  45.2722131  68.9511475  83.3966209  44.4610477  69.2746805  83.0047421
  45.2156172  67.9992922  83.3129541  54.9480185  67.7544739  24.7213792
  54.2141897  67.5630405  24.1373583  55.6757103  67.2434136  24.3670998
   3.3423022  44.3886508  37.4912156   3.9944905  44.2783741  38.1831124
   2.5206342  44.5396304  37.9584401  68.1287709   7.6415672  38.4691330
  68.6200520   6.9827979  37.9783197  68.7981695   8.1379547  38.9400223
   1.4542014  64.6537803  27.9990206   1.7802915  65.5528515  27.9594217
   0.5147276  64.7322276  27.8332888  57.5446145  53.4918204   0.5826114
  57.7817630  52.7890597  -0.0224670  57.4855312  53.0630338   1.4363578
  78.6293888  51.8959045  68.9767490  78.5677438  51.2469529  69.6776724
  77.7683413  51.8797030  68.5589374  16.6733213  58.0366213  33.2140290
  16.3341313  57.1785219  33.4686808  16.2651945  58.6472752  33.8278419
  22.8906644  65.1449023  77.7582692  23.4925364  65.1232147  77.0142856
  22.0204381  65.1820929  77.3613374  21.5887450  51.6368573  18.7333853
  21.5927649  51.7716470  17.7857316  22.5144315  51.6120784  18.9757120
  52.1237773  24.2123490  19.4459155  51.2100762  24.2840956  19.1698092
  52.1041390  24.3874958  20.3867501  51.4416340  13.6174117   1.6478145
  51.4262585  12.8622415   1.0598405  51.4754078  14.3750382   1.0637826
  17.8133303  69.3518089  21.8126701  17.2501087  68.9541052  22.4766317
  18.1619231  70.1375672  22.2337387  21.3331146  56.5517385  76.4809985
  21.6753396  57.3397700  76.0589557  20.6368605  56.2505493  75.8972629
  73.7097919  23.2749738  47.4798458  73.0880085  23.5536230  48.1521342
  73.6510334  23.9506803  46.8044201  44.6993687  19.3840314  75.3013798
  45.1605928  18.8551627  75.9523807  45.3651520  19.9836960  74.9646797
  38.0521527  63.9524100  52.3950446  38.1118091  63.3809975  53.1606560
  37.2785594  64.4919081  52.5585285   3.5901977  24.6811637   8.6485947
   2.8800402  24.2525767   8.1708695   3.5223180  24.3361949   9.5388872
  86.4376631  29.2144570  33.3543870  86.5154556  28.3410293  32.9705847
  86.8071887  29.1238922  34.2327267  63.4877039  25.4649403  22.2822984
  63.1153330  24.9072802  21.5992267  64.1536040  24.9191354  22.7005159
  60.5725906  17.1048373  71.1363141  60.0241674  16.4919239  70.6466194
  60.2909268  17.9695335  70.8376540  40.6433602  24.6498383  23.0151830
  40.7162935  25.4632485  23.5144589  41.5009799  24.2347525  23.1069665
  69.9651298  66.6241375  79.5381748  70.2091233  66.3156041  78.6655316
  70.7883628  66.9206724  79.9262294  31.7100496  43.3268013  77.7496110
  31.8343152  43.0450643  78.6559300  31.9595692  44.2509073  77.7497076
  75.3383791   0.4890779  43.1590609  75.1878231   0.7603328  44.0645914
  74.4857027   0.1749753  42.8582049  20.1818143  34.4140281   9.7388998
  19.9372100  35.2485194  10.1389308  21.0806387  34.2626460  10.0311839
  31.0841787  15.6159932  73.6699771  31.4518090  15.8088126  74.5324737
  30.5082942  16.3575748  73.4838437  57.3519109  44.0112184   4.5739198
  57.3396877  44.6700182   5.2682290  56.4282963  43.8394398   4.3904534
  36.1224909  12.2145240  18.6871675  36.9944441  12.1103777  18.3062700
  36.2744147  12.2319905  19.6320728  56.2564782  14.5362854  75.5302658
  56.7371132  14.1327562  76.2530286  55.9520306  15.3726428  75.8824728
  58.0092427  56.0991491   7.0881437  57.6058422  55.6462083   6.3476408
  57.2763259  56.3159959   7.6643748  21.6912146  37.1563105  84.2611778
  22.3867089  36.5393757  84.0333381  21.0623267  36.6347696  84.7599031
  66.2087369  46.1020853  71.4722242  66.7133088  46.9144874  71.5127440
  66.7716501  45.4941765  70.9928419  47.0427541  22.4387198  21.1253021
  47.9596541  22.2387186  20.9368192  47.0793692  23.1450741  21.7702477
  85.0036909  62.1623853  20.9348416  85.5435655  61.3759501  21.0141316
  85.4253837  62.6737636  20.2442627  53.8048125   1.1115157  32.3146847
  53.2492316   1.0929495  33.0939260  53.3841846   1.7472100  31.7357228
  49.1212108  52.9450154  69.8072929  50.0716298  53.0584460  69.7989798
  48.9828525  52.1168271  70.2668503  26.2524586   2.5839235  44.5632053
  26.9359129   2.4584233  45.2215151  25.4398211   2.3573221  45.0154263
   7.1729588  18.9993347  63.3977619   6.9216503  19.3319242  64.2594232
   7.2465282  19.7816796  62.8511762  17.3493197  70.5869004  85.4348624
  16.7066333  70.0032152  85.0317525  17.4263720  71.3181135  84.8219822
  22.8791960  48.3705131  13.7776344  22.1201521  47.7920137  13.7039965
  23.3744841  48.2194273  12.9725912   5.1426765  20.9242532  35.5323892
   5.4942681  20.2184912  34.9896966   5.6850248  21.6835111  35.3188068
  36.5969415  42.8587911  52.9178949  37.1951070  42.6350734  53.6309028
  37.1706228  43.0698256  52.1812905  29.0567093  50.1691248  55.2375234
  28.6574368  50.8794362  55.7397893  29.9499857  50.1090279  55.5761640
  34.6394952  29.9257821  14.7874865  35.0918143  29.1183816  14.5430613
  35.0184031  30.1660298  15.6330288  61.0007289  59.4397217  35.3081918
  60.1949390  59.6954419  34.8592580  60.8814603  59.7457642  36.2072718
  85.1539927  47.0139271  32.0863171  86.0183568  46.8911764  32.4787949
  84.5615871  47.0987336  32.8333748  42.4660236  53.1210797  72.9830584
  43.1836648  53.7524136  72.9316732  42.0678012  53.1397754  72.1128278
  36.2586084  42.7482300   1.0014008  36.1210020  43.6685947   0.7772911
  37.1925196  42.6876933   1.2023410   8.9640643  15.7247401  14.4680174
   8.0604765  15.4995798  14.6895207   9.0262897  16.6640086  14.6416104
   3.8730044  64.2028903  58.3211725   3.9107196  65.0417940  58.7805743
   3.4901548  63.5985547  58.9571257  16.2626429  35.2326439  88.4648267
  15.6748366  34.5747062  88.8360863  15.7344575  36.0298734  88.4238743
  51.3947228  27.4891447  33.4842615  52.2356073  27.2660554  33.0850420
  51.5345356  27.3640972  34.4229027  85.3162318  15.6642602  41.7474183
  86.0718007  15.4092748  42.2768801  84.9965568  16.4678640  42.1576142
  21.9155377  21.8293375  76.7572828  21.7449711  21.2109607  76.0468259
  21.2818907  21.5955711  77.4355723   4.0738615  27.1208189  84.0265840
   4.9667170  26.9249394  84.3106126   3.5529563  26.3857574  84.3499632
  23.5974177  54.3764869  25.8797106  23.8879290  55.2674225  25.6845983
  24.1473203  54.1004280  26.6129435  17.5047950  55.5587249  22.5476574
  18.3065902  55.0772686  22.3438039  17.5277322  56.3190981  21.9666769
  56.4902471   8.0645268  73.1530389  55.6871844   8.5850372  73.1332621
  56.8699883   8.2426432  74.0134475  36.3797239  41.2272894  82.5312748
  36.8637974  42.0494493  82.4540880  37.0498258  40.5473430  82.4615035
  11.1618293  66.7997081  63.0743783  11.9582194  66.4428983  63.4676740
  10.8468825  66.1036504  62.4977121  16.4336527  49.2055372  55.4390263
  16.8057082  48.5681763  54.8294546  16.8728775  49.0264712  56.2704400
  86.1681677  15.6902461  67.3810283  86.4262160  15.2660116  66.5626958
  86.9317637  16.2096896  67.6326857  55.7232841  39.2770206  75.0829487
  55.7240062  38.6143387  75.7736615  55.9037385  40.0988464  75.5393152
  72.3692671  16.4777980  65.7314021  72.7541486  17.3288144  65.9408517
  71.9499791  16.6073930  64.8807349  28.6811580  50.6679639  78.2872731
  28.2839742  49.8152794  78.1100559  28.1371472  51.2904999  77.8048489
  55.2961154  12.8728713  52.5854630  55.6396685  13.2989312  53.3707503
  56.0741860  12.5693201  52.1178149  27.4039293  20.7614274   7.7816186
  28.1084207  21.3902219   7.9382750  27.0881959  20.9696370   6.9023046
  15.4083512  55.0677297   0.5987121  16.2975488  55.1636908   0.2576095
  15.3689076  55.6738341   1.3385185  79.4642782  31.4923838  53.2342283
  78.9356512  30.6958452  53.2823065  79.0244261  32.1075346  53.8210430
  71.3627780  48.2984856  73.7491960  71.1110772  47.9449272  72.8960401
  70.6901137  47.9770686  74.3495673  16.4708569  47.4219623  35.9103340
  16.5233341  46.4735539  36.0286533  15.7032844  47.6846015  36.4183545
   0.3199732   2.1990261  26.1085451   0.4172310   2.9699050  25.5495116
  -0.6260589   2.0694791  26.1754223  64.7686743  35.1275935  78.1942296
  64.1735271  35.1672276  78.9428688  65.1727192  34.2619819  78.2550243
  25.3204663  47.6820993  69.2160639  26.2739156  47.7101875  69.1362065
  25.0269599  47.2315440  68.4241764  79.2146916  53.6762959  53.7515838
  80.0832372  54.0111998  53.5286494  78.6078847  54.2848767  53.3301023
  57.4242973  56.1996512  76.5015481  58.0636903  56.7886447  76.9021665
  56.6613738  56.2467246  77.0777111  25.2046118  11.7726039  18.6649569
  24.3134026  11.7490865  19.0134177  25.5451197  10.8912784  18.8184219
  86.8474465  70.2745122   4.5900788  85.9909405  69.9718841   4.2883414
  87.1337833  69.6036625   5.2099206  76.1904073  48.8505049   8.7218280
  76.9531718  48.6644967   9.2693890  75.8266587  49.6583179   9.0842600
  23.9510342  68.9311147  65.7081119  23.6222693  68.0331583  65.7507709
  23.1985697  69.4482736  65.4207522  59.1279485   8.9050495   0.1831897
  58.6410862   8.1406361  -0.1248185  60.0304846   8.5969956   0.2654292
  17.1247312  30.8051941  77.0864339  16.5279771  31.5436459  76.9647570
  16.7620303  30.3241961  77.8302894  47.3021621  68.0397181  53.8498629
  46.4715270  68.3165520  53.4630295  47.2195129  68.2600647  54.7776820
  47.5187911   9.5389333  77.4539940  48.1154118   9.3068936  78.1656351
  46.7199606   9.0457549  77.6407471  58.2661642  12.2984061  10.4810219
  57.8378499  12.0794471   9.6534739  59.1749967  12.4779681  10.2401632
  58.9796550  68.9715722   4.2903095  59.9200811  68.8043918   4.3526089
  58.6643809  68.9053119   5.1916661  57.0270605  19.3982139  29.4391288
  57.4258557  19.6142151  28.5961948  56.7848369  18.4755489  29.3600790
  74.0863810  14.9807510  87.5323256  73.9452092  15.7769743  87.0201433
  74.8203154  15.1937120  88.1087107  52.3143474  21.8271298  86.6064080
  53.1458200  22.2654963  86.4255212  51.6510308  22.5011294  86.4581937
  44.8394640  60.8899253  22.8566788  44.8319693  59.9569803  23.0706633
  45.4306069  61.2787756  23.5013317  77.1080472  64.4422069  64.3980121
  76.6097203  63.8790999  63.8057178  77.4287718  65.1514595  63.8409408
  25.4440601  39.7278806  41.6600319  24.6796273  39.8104821  41.0898991
  25.1052101  39.3212446  42.4575653  32.3903224  13.7236902  88.1016346
  32.1045739  13.0093105  87.5322127  31.5918459  14.0110140  88.5444800
  71.1366517  51.1235050  10.3524598  71.8165203  50.5251816  10.0425894
  71.6173070  51.8265030  10.7894909  35.4014143  52.9303452  81.7052790
  34.6827573  53.5616432  81.7403041  35.5415916  52.7786178  80.7706342
  33.7902752  47.3007470  71.1818424  33.3534978  47.7396014  71.9118179
  34.6564564  47.7062070  71.1422928   3.8886429  59.4402446  30.1551323
   3.5145035  59.2349161  29.2983408   4.4335726  58.6821941  30.3664210
  39.0912751   6.1881810   7.7143133  38.8802416   5.4842944   8.3276975
  39.6194668   6.8011564   8.2256905  50.2736023  22.0328150  22.2717784
  50.0688328  22.7771148  22.8377459  51.0889227  21.6789231  22.6270883
  12.8948269  64.4519189  57.6517898  12.9852145  64.2021198  58.5713888
  13.4362603  63.8207122  57.1778068  18.7835171  44.3777214  58.8607495
  17.8522165  44.5465701  58.7179172  18.8953979  43.4524586  58.6425678
  68.0539035  67.1895975  39.4655821  67.9559847  68.1178470  39.6777062
  67.8651745  66.7350922  40.2865803  55.8859007  32.1255929  22.0483703
  55.7564191  31.2160075  21.7798171  56.0863867  32.0731935  22.9828710
   7.0136709  31.5778876  11.5584037   7.6917287  32.2178914  11.7748858
   7.2993017  30.7716896  11.9881615   2.2319690  38.6502995  86.8062350
   2.2547891  39.3999854  86.2115232   2.9360937  38.0793102  86.4989705
  42.8863903   0.9364724  88.9205376  43.7864162   0.7654516  89.1979129
  42.7091611   0.2691277  88.2576102  29.3766444   1.8057816  20.4536164
  30.1681177   2.2526099  20.1533725  28.8570111   1.6796615  19.6596978
  24.3479562  24.3308817  11.2272418  23.7356792  24.3718983  10.4926219
  25.1923972  24.5763399  10.8492187  63.7503212   0.2980150  67.2316197
  64.1363168   1.0146252  67.7353150  64.4858025  -0.0782700  66.7481854
  15.2512433  69.7096778  32.7557695  15.4951370  70.1429800  31.9378473
  16.0851652  69.4482781  33.1462516  47.7110394  69.2375198  24.0786197
  47.6719516  68.3021898  23.8789660  46.8852457  69.5883320  23.7451117
   1.3251553  56.4853878   6.9019301   0.6561951  57.0934882   7.2164739
   1.3603272  55.8012566   7.5704803   1.3134152  50.2071990  71.3558670
   1.6814137  49.4362569  71.7876738   2.0761297  50.7293838  71.1072277
  61.3549093  59.9122682  14.0687467  61.2467864  59.9020176  13.1177282
  60.9518596  59.0959656  14.3644372  44.9046960  54.1980664  35.5671143
  44.1484093  54.5984676  35.1382307  44.5750625  53.9172385  36.4207590
   6.8190919  25.9972959  82.8364136   6.8948250  26.7432343  83.4314534
   7.3715208  26.2293270  82.0899448   0.8088222  14.9499581  29.3468625
   0.7431489  14.0629609  28.9930902   1.7397456  15.0629387  29.5388231
  67.9746429  67.5615113  27.3393575  67.6646025  67.4592165  26.4395561
  67.1922963  67.8000941  27.8365938  33.7273122  16.7794837  11.6175221
  34.4482004  17.2137622  11.1615021  33.3323017  16.2121056  10.9554944
  44.8093356  35.6438830   8.9030791  44.7141863  35.5478483   7.9554738
  44.0202241  35.2408011   9.2651010  74.4379018  38.8313244  68.8961325
  74.0836077  39.5362786  68.3541481  73.8335622  38.1008656  68.7640891
  63.8230845  25.1630965  53.0450762  64.3670581  24.6102317  52.4841261
  62.9720486  24.7252095  53.0600720   9.0666860  67.5411197  65.4899698
   9.8119246  67.7780701  66.0419714   8.3545340  67.3747094  66.1075287
  41.3704935   6.1729892  17.3294983  40.8630375   6.2447624  18.1379343
  40.9824960   6.8238101  16.7445864  42.6196654   2.3063774  47.3876217
  41.7675110   2.3426233  46.9531670  43.2440712   2.1554452  46.6779960
  16.9799898  54.4299366  74.8866795  16.9486899  54.3966563  73.9305704
  16.0714323  54.5741238  75.1511888  57.4424016   1.8699012  49.1301105
  56.8635801   1.1822159  49.4591793  57.7043330   2.3567367  49.9115290
  46.5972561  52.2354810  18.6722228  47.4899913  52.0393978  18.9564887
  46.6886786  52.4896293  17.7539187  52.8272194  69.2462533  25.7753750
  53.7150655  68.8897504  25.8048162  52.9429253  70.1544168  25.4959416
  82.7116715  43.2609978  32.6454274  83.6306984  43.1240371  32.8753471
  82.6263329  44.2100645  32.5547550  29.8099301  13.1056150   0.0925267
  29.2120597  13.8393179  -0.0505217  29.7127647  12.8950299   1.0212057
  22.0938237  62.7540343  21.8479013  22.8981437  63.1925382  21.5703846
  22.3813574  62.1188583  22.5037272  29.3938281  53.2469582  83.4402780
  29.1493647  52.5324016  84.0283923  30.0456945  52.8624419  82.8542325
  77.1195942  48.3898941  34.5496199  76.9621221  47.4556524  34.4131398
  76.7624057  48.8098116  33.7671127  30.2351642  53.1755511  40.7753865
  30.9787503  53.7781814  40.7632119  29.8645383  53.2701600  41.6528358
   0.8782971  67.5831815  29.4023819   1.3762080  67.5924287  28.5849279
   1.1022263  68.4104855  29.8285927  81.3441336  71.2815962  55.7884247
  81.3060031  71.2650504  54.8321276  82.1516425  70.8150423  56.0040370
   4.3684195  39.3716450  69.9271889   3.6453008  39.0491496  70.4650811
   3.9873280  40.0864212  69.4171927  38.5840760  54.0160408  42.0161989
  38.5253304  54.0553561  41.0616126  38.4864310  54.9250294  42.2998129
  45.9108516  38.2380508  47.0484998  46.4793560  37.8169845  47.6932772
  45.6712119  37.5348000  46.4449744  39.1556106  29.4972849  82.2667831
  39.3220124  28.5547435  82.2542093  39.8369115  29.8682828  81.7060503
  82.3644890  22.8921299  38.8160702  82.5232715  23.8018938  39.0677634
  83.2277539  22.5561687  38.5749568  17.4487423  70.7518442  58.2299417
  18.2303093  71.1368845  57.8335468  16.7531920  71.3848508  58.0517724
  69.5997608  19.2394673  50.9700364  70.3216840  19.4758247  50.3876329
  69.8479376  18.3858088  51.3248706   2.9214695  51.4998413  57.4252428
   3.3546173  51.7121364  56.5984746   2.1346356  52.0449092  57.4302751
  40.8029230  59.6874361  71.0735575  40.2205678  58.9599848  70.8546767
  40.2152133  60.4278942  71.2237269  72.9591671  34.7418051  65.7240442
  73.6915038  34.6934490  65.1095717  72.2177763  35.0288420  65.1909576
  68.0288781  31.6788560   4.4013218  67.3896320  32.2552335   3.9825317
  68.8772511  31.9999736   4.0957427   7.9188909   4.1411165  15.0854621
   8.2235379   3.8116227  14.2399706   7.4378195   4.9405663  14.8717284
  46.7873117  61.7175258  28.3431137  47.0940458  62.4061708  27.7532713
  46.5733230  62.1759306  29.1557057  14.5903648  50.7811196  34.2317733
  15.3403753  50.2235267  34.0248765  14.9625298  51.6579774  34.3258234
  54.3360138   9.6906124  77.5512838  53.4292771   9.6369971  77.8532534
  54.7512779   8.9013211  77.8988566  65.6240897  21.8597359  56.4802584
  65.7221645  20.9921724  56.0878980  66.0745245  22.4486942  55.8748920
  48.0758314  44.2516771  58.6277076  47.1885303  44.3260376  58.9789897
  48.2029545  43.3122804  58.4950220  55.7080739  42.8685641  37.2264733
  55.2204494  43.6865911  37.3228371  55.8800923  42.8014844  36.2872493
  78.3972437  65.4790842  48.4634578  77.8699130  64.6802868  48.4722203
  78.4204403  65.7608098  49.3779656  67.6626081  41.1735870  20.2537452
  67.0150033  40.8438324  19.6307671  68.3857195  40.5486522  20.2008467
  54.8503802   3.9499047  50.5703566  54.3660422   3.1266360  50.6326233
  54.2023131   4.5868947  50.2695500  84.0396690   1.5911676  51.6393108
  84.7648512   2.0523779  52.0607698  84.2470676   1.6214524  50.7053405
  73.6494367  47.9515047  50.8148347  73.1908199  47.1289652  50.6435713
  73.7618612  47.9696581  51.7652362  13.8862923  60.6139294  43.8211477
  14.3238164  61.4452472  43.6375304  14.5689726  59.9531468  43.7047609
  83.0561155  19.3678155  68.7140317  83.4600772  19.2820865  67.8504940
  83.4569180  18.6727492  69.2360203  83.5769014   6.9911137   3.3112438
  84.0295434   7.2757751   4.1051675  82.9494823   6.3352885   3.6153331
  80.8361925   0.3033833  80.4657396  80.2441217  -0.4062788  80.2166135
  81.2140047   0.6016723  79.6383863  38.3109189  43.0265000  29.5136870
  38.8452893  42.2885975  29.2201228  38.9459572  43.6852048  29.7948740
  46.9868871  54.5173744  57.7612479  46.5981440  54.8401510  58.5742214
  47.4313658  53.7079239  58.0131615   9.7840626   8.7154253   8.3041224
   9.5296954   9.4435563   7.7372411   8.9765049   8.2175503   8.4314129
  26.2404706  53.2346140  26.5859576  26.3652592  54.1146715  26.2307696
  26.7183197  53.2410803  27.4153250  81.8466341  19.0456624  77.2168425
  81.7570677  19.5708016  76.4215825  81.3233238  18.2624112  77.0468550
  43.2198194  57.2764995  45.4454837  43.3584251  58.0183604  46.0342644
  43.8512308  57.4104705  44.7386575  59.0719911  54.6316440  41.6121348
  59.8689081  54.6786448  42.1402882  58.3602162  54.7458332  42.2418722
  19.0244450  49.2341811  83.4695290  18.2713578  49.4009813  84.0363351
  18.8580880  49.7621717  82.6886430   5.8338782   5.8056707  10.6188529
   6.3955257   5.6356977  11.3750890   6.0839458   5.1382111   9.9799510
  37.5511697   3.0135251   1.0394167  36.9440192   3.5974010   0.5847860
  38.2046963   2.7856090   0.3782140  78.0696153  57.2428802  89.3914366
  77.8806203  56.9455268  88.5014401  77.6876128  58.1193507  89.4373197
  10.3745190  14.1529095  22.2471840   9.9254186  13.4600005  21.7630169
   9.9357955  14.1738611  23.0976631  45.2385249  63.2294666   4.4496323
  44.7448057  63.9373332   4.0356298  44.5682706  62.6493326   4.8107909
  60.7332006  69.8269269  46.5603309  60.8789684  68.9122468  46.8018756
  60.5316886  70.2639605  47.3877524  62.6533853  28.8261149   1.9157787
  62.3733675  28.9350792   1.0069615  63.5962639  28.9900231   1.8971810
  62.2467199  62.9179135  60.9447101  62.1941682  62.6311566  60.0329861
  62.9941123  63.5155928  60.9651057   6.0355951  14.1588278  34.1003822
   5.5182824  13.4202565  33.7792408   6.9037699  14.0267563  33.7195128
   4.2881444  25.8514781  76.6862437   3.8090585  26.4741324  77.2330617
   5.2099888  26.0621248  76.8347792  86.1952714  43.5949839   9.2985586
  87.1512625  43.6371060   9.3217659  85.9161108  44.5097201   9.2590771
  11.1686276  32.1304933   6.2145655  11.9482136  32.3628772   6.7190210
  10.8695855  31.3075596   6.6013288  41.6276472  31.4511126  28.6692077
  42.0987843  31.0528590  27.9373227  40.7658979  31.0347017  28.6543089
  81.2698751   6.2526604  78.7568044  81.5322178   7.1417219  78.5181040
  81.6581400   6.1120745  79.6203539  84.0537334  49.3518612  72.6739645
  83.5090058  49.4647543  71.8950173  83.4379692  49.3969119  73.4054266
  75.6032140  16.8216648   2.0985263  75.8004098  16.9045257   1.1655313
  75.7558171  17.6971081   2.4542553  18.2453227   2.0522115  65.8538067
  17.7651943   2.7188498  66.3450316  18.5718909   1.4505365  66.5228152
  80.4322187  27.2713573  24.1890535  79.6774939  26.6900614  24.0956863
  81.0323697  26.7944708  24.7623159  77.8555757  22.1570302  85.4135108
  78.7292143  22.5142105  85.5729149  77.6239786  22.4716267  84.5396552
  43.4512446   6.0600007  10.5347077  43.8575673   5.3967272  11.0925625
  44.1868552   6.4870213  10.0956606  39.8876089  35.6759755  68.5111851
  40.7529239  35.5974809  68.9128072  39.3430997  35.0523510  68.9916370
  58.7034247  61.9094995  26.6810737  58.8238277  62.5474713  27.3844420
  59.5851125  61.7601242  26.3396861  36.6593358  56.3898330  86.6645956
  35.9994595  56.7258929  86.0580820  36.5526518  55.4391585  86.6319093
  71.7024767  61.5763931   8.5345823  71.7673262  60.6777111   8.8576877
  71.1876982  61.5053412   7.7307250  74.0505154  39.2219569  15.5954619
  73.6929231  40.0520459  15.9105997  73.2815255  38.7082779  15.3484391
  10.5333014  14.6591661  27.1504784  10.2486879  15.2403547  26.4451793
  11.4082225  14.3737414  26.8872718  62.5114446  61.1114595  52.8021806
  62.8190744  60.2533371  53.0941081  62.7651245  61.7089004  53.5057022
  70.2490989   2.7666935  79.8369238  70.5717651   3.5069665  79.3230033
  69.9804114   2.1206443  79.1837321  74.6719073  29.1878891  22.3974804
  73.9435086  29.2564076  23.0147099  75.4103371  28.8927268  22.9302396
  64.2675658  39.9158669  50.4789135  63.3706795  39.6427174  50.6718286
  64.4962865  40.5093790  51.1942191  25.7879251  22.1869896  88.1008117
  25.2122256  21.5478097  88.5206343  26.2679732  22.5888750  88.8248792
  67.3388304   7.8665370  30.3271694  67.0882486   7.5129850  31.1806573
  66.9264834   8.7297704  30.2950783  82.6349816  39.0929435  51.6275733
  82.4553810  38.8675316  50.7147946  82.7546459  40.0426091  51.6206745
  53.7539561  57.0782127  26.8944974  54.4668337  57.6300690  26.5727958
  54.1883500  56.2861811  27.2110724  64.0825632  17.8100772  21.1485614
  64.3710232  18.7193712  21.0697763  63.7869519  17.5755066  20.2688897
  36.2256458  56.2207750  27.5929967  36.4587914  57.0090254  28.0834418
  36.3553149  56.4622080  26.6758665  26.9784887  17.9058220  84.4483272
  26.0358311  18.0066118  84.5805012  27.1983980  18.5590071  83.7840825
  28.5909958  45.6257726  71.5774168  29.2319206  45.9797066  70.9608310
  28.2855818  44.8166062  71.1672900  37.5279365  14.7023237  72.7787702
  38.4633821  14.6903326  72.5762125  37.1941100  13.8811618  72.4175435
  70.6766323  60.5374026   5.0452332  70.8383869  61.4705744   5.1840051
  69.7228639  60.4565050   5.0488886  71.4152130  20.5774383  49.4890876
  71.1307870  21.4910692  49.4643452  72.3708991  20.6247191  49.5147852
  83.3636566  16.3091031  29.4299321  83.0790026  15.5844911  29.9868355
  83.6336082  15.8910293  28.6122694   3.3648971  62.0435529  20.2342965
   3.8948950  62.1750680  21.0204503   3.9620879  61.6334390  19.6086755
  47.4980699  53.0344409  41.3115304  47.5809583  53.6840826  42.0096185
  47.6775404  52.1977451  41.7404388  22.4829772  65.3401769  63.1173401
  22.5615272  65.0470771  64.0251696  23.2061904  65.9563743  63.0011711
  17.7442352  69.5698627  33.5915207  18.0318330  69.4843142  32.6825648
  17.7446387  70.5129801  33.7551089  21.9685723  39.7233936  79.2963797
  21.5654784  40.5886255  79.2248188  22.8889712  39.9030863  79.4882346
  60.6619136  48.2146015  47.3814585  60.3657030  47.7528524  48.1658557
  59.8612719  48.5713746  46.9968580  16.5032211  50.7016935   9.0684115
  16.6905043  51.3227395   9.7722998  17.2597233  50.7651917   8.4853985
  63.5470852  14.7169846  83.2036604  63.9355328  15.5037740  82.8211652
  64.2151519  14.3881846  83.8051663  33.0029460  66.7551879  62.5647216
  32.7137920  66.9601664  61.6755615  32.2244039  66.4004195  62.9939574
  65.8474067  39.7343054   6.6999956  66.3563665  40.1007284   5.9768594
  65.7935042  38.7987244   6.5050227  75.4762668  13.4878034  50.6782296
  75.2781515  13.7317713  49.7740936  76.0670419  14.1744534  50.9876295
  35.5051901   4.5843993  13.6637867  36.0364855   4.2001372  14.3611386
  34.6061777   4.3432732  13.8870956   8.1248578  11.2791764  77.8178979
   7.7876041  12.1563583  77.6361183   7.6870313  11.0173242  78.6278197
  57.2005756  11.8444326  24.2483449  57.3228452  11.2099079  23.5421859
  56.3363253  12.2217790  24.0842932  56.9294205  15.7834793  49.7356453
  57.8420795  15.7496565  50.0222485  56.9621263  15.5607654  48.8052902
  47.0031339  17.8512727  85.1868628  46.6279333  17.0520799  85.5566562
  46.4518038  18.0463476  84.4290945  71.8402339   3.0560635  65.1359604
  71.0254810   3.4990688  64.8989880  71.7741200   2.9227588  66.0815241
  73.5590830  41.7295380  32.4604086  74.3297357  42.2930674  32.5294073
  73.6521404  41.2995341  31.6103094   6.8874409  37.8709406   9.3739936
   7.0014560  37.2254251   8.6764679   6.9021605  38.7154135   8.9235709
  26.7380444  11.3773632  79.2460423  25.8466838  11.0522220  79.1195853
  27.2964650  10.6202311  79.0695511  82.1544632  32.7860633  45.8753906
  82.9882319  33.0802842  45.5086542  82.3289310  32.6777818  46.8103066
  52.8031336  15.0498044  78.3442407  51.9939879  15.2033435  78.8320323
  52.6143337  15.3672109  77.4611554  12.3772027   1.0505921  35.9249326
  12.9214410   0.5092554  35.3531013  12.0938086   1.7764400  35.3689969
  13.5206058  64.1527253   3.2620451  13.9784891  63.6322523   2.6019826
  13.9908845  64.9862745   3.2783369  52.7241580  26.5742591  40.0584027
  52.6399493  27.1262805  39.2809626  53.6617596  26.5733683  40.2511053
  56.8976402  14.9584094   7.1094501  57.6244452  15.3005991   7.6299234
  56.5609463  15.7204573   6.6381200   7.2515251  68.6411759  45.5193447
   8.0279944  68.9894945  45.9575245   6.5324409  68.8259294  46.1235101
  42.3008536  31.0829336  77.9203465  41.6168156  30.5165384  77.5632467
  41.8271985  31.8328540  78.2802106  80.9589735  71.5031032  84.6818052
  81.3621191  71.5277393  85.5496177  80.2900149  70.8216494  84.7477359
  50.1123728  11.4630150  12.6265933  50.9498963  11.6410129  12.1986880
  50.1076203  10.5149884  12.7587102  27.5729755  63.9978792  55.2254978
  26.6546348  63.7317757  55.2710073  28.0154688  63.4420596  55.8669774
  64.1065425  34.4209490  42.3540669  63.7161413  33.5987593  42.0577177
  63.8339079  34.4997461  43.2682295  84.2003196  49.3937654  78.6236915
  84.0987080  49.2555905  79.5653999  84.1919909  50.3451799  78.5189401
   8.9226867   0.3776932  21.4972578   8.2151316  -0.1288654  21.8960009
   8.6039192   1.2802359  21.5032380  17.8826734  12.0627548   5.5959021
  18.7553288  12.2754153   5.2650248  17.7361504  12.6889888   6.3048407
  16.7758259  66.1209863  25.7912940  15.9313051  65.6708180  25.8103964
  16.6409534  66.9058228  26.3223995  45.0472846  17.7810151  15.0529215
  44.2757073  17.2889632  15.3336089  45.4617242  17.2220984  14.3955907
  25.9289788  28.4589472  16.6467668  25.7908103  29.2340929  17.1910925
  26.8639125  28.4736025  16.4420325  23.9414136  51.5038658  74.0536267
  24.8767426  51.4113308  73.8724393  23.8079651  51.0277463  74.8732203
  39.6758445  58.2935125  57.4348219  39.4641656  58.4601584  56.5163161
  38.9376671  58.6606684  57.9211577  83.4547481  53.0763128  73.5749820
  82.7380482  52.9662835  72.9501086  84.1508433  52.5091188  73.2433584
  78.1473944   2.0851358  48.4669457  77.7416874   2.5219253  47.7180474
  77.4677419   1.4987246  48.7992500  78.7880313  14.4657108  86.2791117
  79.2931300  14.9675863  85.6394023  79.3225086  14.4829219  87.0730069
  81.9795536  69.9999850  66.0984917  82.8235279  70.1779054  66.5135624
  81.3334794  70.1877343  66.7793516  19.8921535  21.6536366  78.8843027
  19.4691852  21.8828036  78.0567689  19.1978365  21.7335284  79.5383464
  51.2927427  69.0998120  83.0271023  51.6433880  69.9076873  83.4020917
  50.9699410  68.6061976  83.7810092   3.9225965   3.0801193  11.9351998
   2.9703422   3.1207885  12.0234578   4.0748861   3.0590080  10.9904279
  34.1262034  43.8771196  71.6944102  33.9781001  44.4349628  70.9307950
  34.9798169  44.1514895  72.0295176  36.6442450  61.0164893  29.6674499
  37.1515109  61.8174583  29.5356858  35.7325077  61.3079747  29.6692581
  71.5628363  20.9155113  25.5140176  71.4842143  20.9728235  26.4662601
  70.6871459  20.6696723  25.2157537  25.0231855  10.7058323  65.4054545
  25.8999244  10.5712568  65.7652464  24.6931782   9.8223212  65.2419452
  48.0130866  70.7846499  39.0936732  47.8729752  69.8970931  38.7637587
  48.5113879  70.6638423  39.9019634  20.9639165   8.6254150   1.8776748
  20.2570075   8.9238570   2.4499020  21.1368932   7.7270674   2.1592462
  40.5349521  39.7037820   5.5160586  39.9888072  38.9185813   5.5537083
  40.6642070  39.9497764   6.4320344  34.7206884  52.3811330  29.0605957
  34.1767782  52.7827884  28.3830513  34.6076833  51.4394429  28.9314386
  49.0883619  47.4679556  31.3998048  48.5274090  46.6983454  31.3035550
  48.8050188  48.0595530  30.7026958  86.5798257   3.7842995  28.4430602
  85.9247923   3.5413507  29.0973836  86.7885321   2.9635701  27.9968801
   0.5685392  44.7613561  42.0953824   0.6906661  44.0275317  42.6977267
  -0.1010364  45.3040881  42.5117266  11.3804952  36.8383227  75.5737293
  10.4404159  36.6586500  75.5878856  11.7793869  36.0069975  75.3167942
  20.1945352  20.5713528   4.6236679  20.6114202  20.4415766   5.4754876
  19.3811455  20.0694807   4.6761417  70.8928751  42.7691421  32.6383771
  70.3044328  42.0156511  32.5912714  71.7523387  42.3906293  32.8235316
   6.4206015   2.1931757  13.0059722   6.3301518   1.9899994  13.9369771
   5.7537194   2.8595635  12.8403600  75.1938113  36.8471847  16.2095137
  74.9617811  37.7717544  16.1225390  74.3785815  36.3779475  16.0321755
  25.1991141   0.2514442  63.2698772  24.3409201   0.4261482  62.8835957
  25.3126820   0.9416891  63.9232502   9.6135564  23.4894465   8.5494912
   8.8003587  23.1200620   8.2052583   9.8730620  24.1435211   7.9005882
  50.7842890  47.2965272  78.8469134  51.5183259  46.7175973  78.6413364
  51.1954170  48.1099753  79.1393308  48.8386884  20.5861730  83.5615267
  49.3588038  21.3719118  83.3932224  49.2458436  20.1898861  84.3318599
  61.7795107  64.9517736  19.3346401  61.4737389  64.0859001  19.0644576
  62.3524989  65.2363681  18.6226554  54.9598833  61.0730098  19.8523554
  55.2842421  61.0707207  20.7529208  55.1600117  60.1966440  19.5234730
  74.7918503  37.7523416  32.8661132  74.7686031  37.0789878  33.5460295
  74.4619215  37.3128461  32.0823896  14.0618110  35.6831295  38.2348994
  14.1087934  35.9082290  39.1640682  14.9615444  35.7731109  37.9208692
  28.8894708  20.7173543  84.8651779  28.0888990  20.7757290  84.3437288
  29.0170752  21.6019183  85.2079539  16.7831700  60.9826930  38.7447233
  17.5783392  60.4523454  38.6930599  17.0205318  61.7155094  39.3129411
  68.6159183  62.9469843  30.7505428  67.7377345  62.5664233  30.7364571
  68.6136323  63.5264896  31.5123829  53.8835420  54.8961269   2.8003585
  54.3867631  55.5494881   3.2862798  54.3593425  54.7915713   1.9763962
  49.6054124   0.0569180  57.6963643  50.1631700   0.7930592  57.4448997
  50.0540962  -0.7134899  57.3479588  44.6784852  46.7562924  72.2724759
  45.4524083  46.7157443  71.7106657  44.7561896  47.5950726  72.7270545
  24.9251814   7.4250040  10.9448535  25.2335000   8.0213422  11.6271674
  23.9994767   7.6431061  10.8365290  39.9635742  33.1673413  16.8647922
  39.8724532  34.0410635  16.4846102  39.4964779  33.2190828  17.6986840
  56.3142511  45.8017469  54.3939291  56.1484923  44.9501900  53.9894459
  55.8739578  46.4290628  53.8204761  28.3005126  24.8141215   1.1741612
  27.7237137  25.3915947   1.6742207  29.1636044  24.9369365   1.5694092
   5.5077484   3.7117043  19.6211748   4.9022801   3.9899539  20.3083553
   5.2174585   4.1836874  18.8406650  77.6127279  68.1335633   9.3326810
  77.5651812  68.9211530   8.7907645  78.5499576  67.9871794   9.4607597
  64.1902212  32.2214441   7.9222564  64.5632779  31.6780812   7.2281258
  63.2462413  32.1949406   7.7659510  26.4503634  55.6035993  25.3527548
  26.1498586  55.3132361  24.4915823  26.6199250  56.5393953  25.2442816
  59.3768932   8.4337004  43.0263333  59.8311082   7.6660030  42.6791139
  59.1023217   8.1723484  43.9052744  48.3665386   3.3750238  11.2702640
  49.2532790   3.4686235  11.6183478  48.4172651   2.6186926  10.6857797
  67.6096680  54.6821131  17.2030618  67.8606289  55.2772686  16.4966339
  68.3913005  54.1519356  17.3586074   4.5575143  59.3275952  75.9800125
   5.1139473  58.9724119  76.6731640   4.9604274  59.0198326  75.1681166
  48.0094628  49.5169126  19.7214534  48.7317350  49.3394242  20.3239918
  47.3211201  49.8859874  20.2748068  17.5295846  68.9208237  71.3010562
  16.5986986  68.9279684  71.0782736  17.5740111  68.4428235  72.1291708
  44.1731077   7.1883796  59.2356550  43.9476707   7.6032264  58.4030014
  43.8499483   7.7958004  59.9011171  13.4722388  26.9454984  67.5180098
  12.6950641  27.2312678  67.9981839  13.1706049  26.2034495  66.9939751
  36.7499471  45.3322951  23.7861532  36.8493509  45.8779613  23.0060255
  37.1404339  44.4929591  23.5427049  18.1631868  50.4852197  74.4581160
  17.6351939  50.9077718  73.7806907  18.8592284  50.0390479  73.9757379
  16.3815410  30.6011349  14.1595430  17.0931647  30.7845199  13.5461970
  16.8227620  30.3214955  14.9616388  81.0302465  36.9865943  30.6212108
  80.8783893  37.7030156  30.0048409  80.2783480  37.0161992  31.2128222
  32.1670844  60.3768487  43.9616043  32.5754527  60.9148003  43.2833158
  31.3686845  60.0420034  43.5533544  49.2899721  37.6318681   5.1508955
  50.1155538  37.1569192   5.0556567  49.5251491  38.5501021   5.0175916
   2.8986440  15.3181671  41.9826463   3.2336931  16.2091495  41.8820273
   3.3212851  14.8227010  41.2811338  44.5890723  53.1165708  41.1443577
  45.5231077  52.9079244  41.1277329  44.4420263  53.4877812  42.0143072
  54.9125908  16.1597814  42.2253909  55.5125309  16.3592021  41.5066871
  54.3468947  16.9295704  42.2857617   5.0702631  20.1319956   7.5035596
   5.0419342  19.4491423   8.1737391   5.8976715  19.9839633   7.0456145
  84.3117886  46.7199606  40.5497998  84.9946775  47.1792175  40.0609463
  84.7815659  46.2689772  41.2513374  60.2863850  32.1373714  29.3347745
  60.8775986  31.6895094  28.7296977  59.4781862  32.2563886  28.8358944
  67.6378474   6.1410342  11.6280541  67.9477721   5.3731135  11.1479745
  68.3292589   6.3202515  12.2652850  41.0185664   5.9523429  74.6907613
  41.6850705   5.3130836  74.9424588  40.5529731   6.1458939  75.5043907
   8.5224141   6.0893680  16.9006881   7.8029806   6.5059766  17.3751190
   8.1358384   5.2977190  16.5264115   2.6350688   5.9415014   8.9713491
   3.1523692   5.4814875   9.6324236   2.1338779   6.5889056   9.4672396
  12.7841963  57.7903689  33.0683553  12.9155521  58.7189591  32.8767884
  12.2586355  57.4668756  32.3366656  27.0277454  42.3825544  52.0184029
  27.1087216  41.4663987  51.7531984  26.2212100  42.4125394  52.5330227
  80.2358136  58.8949167   4.0675244  79.9130416  57.9943584   4.0998501
  80.9230871  58.9270522   4.7329973  42.1788105  19.3757801  71.6864819
  42.7407499  19.9600256  71.1774503  41.9912880  19.8628379  72.4888795
  72.9571886   6.5418684  87.7885608  73.8070676   6.1158603  87.9001605
  73.0782466   7.4176446  88.1554298  70.7592466  25.1319941  37.0428118
  70.5863990  24.2010229  37.1829840  71.2524424  25.4032551  37.8170258
   5.9484972   6.4220531  62.7633445   5.7378166   6.9313792  63.5459251
   5.3279846   6.7301377  62.1028296  19.2440451  39.5762990  80.4044785
  19.5690924  40.4302869  80.1193809  19.8293491  39.3233997  81.1184065
  15.9027709  48.8033927  88.6139165  15.0131647  49.1533815  88.5655375
  16.4632996  49.5389698  88.3670042  32.4941480  37.6953622  69.7702079
  32.8763087  38.5545250  69.9491612  33.2355970  37.1559646  69.4953707
  14.4759454  24.9053744  69.6673784  14.2486623  23.9884868  69.5128101
  13.9687402  25.3908271  69.0167553  40.5157350  52.2784480  25.1854488
  40.2173524  51.5900671  25.7798656  41.3043293  52.6279768  25.6003951
  28.6597398  49.4019004  74.1541791  28.7738033  48.9145729  74.9701039
  28.2939224  48.7628215  73.5426338  14.7789061  51.3845304  56.6976828
  13.8873112  51.0781686  56.5320544  15.3379406  50.7425596  56.2599777
  43.3749096  56.5671469  74.7357044  43.1210508  57.4659833  74.5262272
  43.5758920  56.1712204  73.8877184   2.1441486  60.6268612  75.3284363
   1.5711879  60.1768386  75.9492643   3.0103761  60.2514992  75.4865030
  19.8125184  62.6476758  35.8129565  19.1493236  63.2271423  35.4379589
  20.3248890  62.3515632  35.0606098  14.3650292  66.2115337  46.7504428
  14.8185172  66.1627126  45.9088984  13.8275003  67.0010406  46.6874077
  54.3038345  61.0786151  51.5533300  54.2642203  60.2484868  52.0282506
  53.5116718  61.5451220  51.8199410  60.9203063  55.6537041  58.5114152
  61.1985894  55.9135495  57.6331950  61.3222764  54.7954713  58.6459080
  78.5176002  11.4821344  28.3250008  79.1054551  10.8417182  27.9243444
  78.1882795  11.9981879  27.5891554  57.2815986   0.9519892  46.6258945
  57.3145255   1.1321533  47.5654096  57.9777274   1.4933580  46.2536629
  81.4461515  62.2517796  30.3587714  82.0945082  61.7514486  29.8632572
  81.5139931  63.1413657  30.0119774  85.5095653  50.5711881  37.8103812
  86.0385507  50.5279356  37.0138039  85.2531579  51.4909262  37.8779753
  22.5348612  48.6192745  86.6699580  22.7648089  47.7849324  87.0788946
  23.3593177  48.9437182  86.3076879  84.5025404   2.1023333  25.6296628
  84.0154868   1.3104258  25.4018618  83.9960495   2.8152804  25.2405546
  22.5469026  54.6223999  18.1836824  23.4166408  54.9500132  17.9546477
  22.2228765  54.2196215  17.3780718  11.7497343  32.4314049  34.6604945
  11.7539146  33.0812968  35.3632426  12.3779914  32.7663982  34.0207256
  13.5056926  13.2819015  79.6178164  14.0610829  12.5695654  79.3010347
  14.1102029  14.0090721  79.7662149  35.6544747  49.5048513  79.4765560
  34.8538972  49.6785415  79.9716714  35.7981808  50.3018478  78.9662846
  58.4407728  43.3455921  79.9324481  58.8032368  44.0633459  79.4131397
  57.6085327  43.6848174  80.2618937  42.2434435  21.8919926  10.0210567
  42.6226018  22.0036731   9.1492779  42.4101088  22.7244542  10.4631676
   5.5747912  62.4667093  21.9767738   6.5153221  62.2903387  21.9997276
   5.5100596  63.3892736  21.7299605   1.2138312  53.5308652  57.2732987
   0.6312418  53.6712822  56.5269044   0.9833526  54.2248818  57.8909170
  56.1562532  21.0908877   8.0604206  56.4693129  20.1967087   8.1970562
  56.8435805  21.5086202   7.5414672  84.2224954  11.6468280  61.9537135
  83.9646543  11.2046083  61.1448924  83.4730397  11.5331939  62.5382092
  16.9926970   8.9281187  70.4210325  16.7113636   8.5601955  69.5833477
  17.8363517   9.3385037  70.2311307  85.7119254  60.8190785  43.3633026
  85.6352201  59.9990521  42.8755479  86.2583796  61.3768461  42.8096647
  14.9681275  52.2407029  49.7954043  14.6851367  53.1103852  49.5129143
  15.9242578  52.2843814  49.7836201  53.7891148  49.4169918  88.1131245
  54.6046478  49.9159106  88.1602189  54.0664110  48.5231974  87.9119526
  79.3825536  43.6478693  61.8721009  78.6490078  43.1240763  61.5499468
  79.5806339  44.2495339  61.1544690  82.9633149  12.1303805  11.7798644
  82.3308665  12.6072148  11.2423982  83.5780348  12.8008477  12.0778996
   2.4898093  23.2149362  45.0241973   2.6466071  23.5893133  45.8910813
   1.6080646  23.5070564  44.7930613   0.5781122  20.8241678  80.3983430
   0.8985366  20.2301050  81.0770546   0.9433963  21.6768461  80.6344343
  67.9173727  53.3025268  58.9681138  67.9481490  52.3485351  59.0401166
  67.5553569  53.5943140  59.8047957   0.5426293  23.1013338  89.0716005
  -0.1612049  22.6534890  89.5409449   0.0978281  23.5773824  88.3703434
  81.2400654  53.4983520   4.4800887  80.3550524  53.3358521   4.8065511
  81.3173942  52.9374842   3.7082859  40.1102347  39.1888942  73.5047610
  40.9748825  39.5063792  73.7651824  40.2637643  38.7227547  72.6829493
   1.7484950  18.0423181   6.7058443   1.3302156  17.4882088   7.3648110
   1.1107468  18.0905443   5.9936763  59.1263367  54.8638036   4.3819803
  58.3146817  54.6051960   4.8185236  58.9346837  55.7249613   4.0106201
  12.5318688   8.5580159   8.1308972  11.5846387   8.6156458   8.0057342
  12.7833717   7.7484172   7.6864557  55.4588520  43.3060738  21.9058051
  55.3706847  44.2580146  21.9534185  54.8221250  43.0394330  21.2426962
  85.7096784  34.1064989  68.0877973  86.4838133  34.6610445  67.9907086
  85.9303267  33.3026752  67.6172511   3.7540387   7.7116544  46.6888302
   3.6526645   6.9322340  47.2351441   3.5387586   7.4142001  45.8048578
  39.6653524  50.2674741  26.6976012  39.5370395  49.3235475  26.7912508
  39.9520882  50.5572981  27.5636361  83.4506895  12.3987765  67.9055385
  83.1996450  12.3944030  66.9818560  84.3546280  12.7136193  67.9065723
  82.8222383  45.5106674  28.6080531  83.1048777  45.2519127  27.7309027
  82.2004987  44.8314449  28.8694501  49.9309490  30.3666132  37.1371302
  49.5014962  31.2206910  37.0886196  50.6711482  30.4361294  36.5342169
  48.8929010  52.4881055  29.2606537  48.2180057  52.8309430  29.8464955
  48.5993107  52.7383769  28.3846395  29.6224004  12.9802008   2.9612081
  30.1493334  12.2708549   3.3291780  29.3927266  13.5237558   3.7148856
  37.9911217  54.3088122  74.1017600  37.7789964  55.1316685  73.6611442
  38.8632228  54.4519044  74.4694503  50.3686019  38.3491250  65.0136716
  49.6984110  38.6226427  65.6399815  50.9397637  39.1121739  64.9255672
  66.0746827  49.5130756  63.1843775  66.0405820  48.6339018  63.5613688
  65.4870660  50.0321050  63.7335104  68.5403123  41.0050479  42.6056307
  67.7847966  40.4677651  42.3673975  68.6714487  41.5812414  41.8526127
  40.8354436  53.0200921  77.1917946  41.7436757  52.7983975  76.9863737
  40.3169659  52.3720572  76.7148633  19.9859265  17.9143424  70.8050366
  19.4571766  17.8143748  71.5966564  19.3632815  18.1970421  70.1352411
  63.2628103  11.3112264  12.2577449  63.3921906  11.3706093  11.3111900
  62.3132729  11.2593194  12.3669059  68.9819165  39.6507552  53.1970161
  68.0701652  39.9409032  53.2245033  68.9328840  38.6985382  53.2813391
  84.2391471  53.7323861  15.8428418  85.0917366  53.9878434  15.4906138
  83.7078599  53.5420855  15.0696980  42.7624362  13.7217209  74.5140358
  42.7043491  14.6251982  74.2032520  42.0102809  13.6202438  75.0972995
  84.8402142  51.3259634  76.5003641  84.6869133  52.1132556  77.0227639
  83.9929692  51.1376286  76.0967086  57.0490148  54.4452282  11.0451576
  57.6179666  55.1301969  11.3963607  57.3526126  54.3192930  10.1461578
  10.0116611  42.5943950   3.2202041  10.5836273  42.7564859   2.4699954
  10.5960638  42.2548021   3.8979813  44.4933896  67.8602656  69.4300688
  43.9910648  68.3489684  70.0820437  45.1825939  68.4653031  69.1559175
  50.5868859   0.6226770  37.8727612  51.3539538   1.1944320  37.8421855
  49.9130922   1.0997598  37.3883793  11.9400266   7.7328549  86.0047412
  11.6627393   7.8114463  86.9175210  11.3323529   7.0990961  85.6235400
  45.6708823  41.9233404  60.1498701  46.1183177  41.4612786  60.8587653
  45.0574138  42.5080800  60.5948058  69.7204834  55.0854072  58.6108328
  70.2693578  54.8753810  59.3663841  69.1200284  54.3435903  58.5373933
  57.3789252  29.0171030  29.8952053  58.1806528  28.8757596  29.3917307
  57.3915392  29.9500998  30.1087229  52.2236496  67.5214446  71.0239687
  51.3810656  67.1461561  71.2797862  52.7715030  67.4340276  71.8039987
  27.9416552  65.2628490  73.3846377  28.8713248  65.0442121  73.4490126
  27.7680695  65.2963462  72.4439052  53.3562302  52.2273596  15.1894051
  53.8742005  51.9038194  15.9264671  53.9292497  52.1229088  14.4298193
  80.3130481   3.8345456  62.2479682  80.5433762   3.2000432  62.9266342
  80.7457703   4.6438697  62.5199569  74.8667765  58.5675216  61.8498842
  75.6173750  57.9788697  61.9293995  74.2204377  58.0657408  61.3532011
  34.5013432  69.6636331  47.2112234  34.2592340  70.2175985  47.9533401
  33.6852573  69.5437052  46.7255765  51.0603318  52.3266313  21.8586491
  51.5930417  52.9748402  21.3979136  50.2938075  52.8156141  22.1579285
  48.8066912  69.4740142  70.3931887  48.5676215  69.1526413  71.2625545
  49.4185881  70.1903462  70.5625478  63.8291032  39.8265883  25.2697240
  62.9326582  39.8217381  25.6052751  63.9324522  38.9724292  24.8502444
  14.3056465  41.5920123  77.3452934  14.1885777  41.9863559  76.4809903
  14.4636240  42.3347673  77.9280369   9.4720211  66.4582824  49.7784512
   9.3225757  66.3633672  50.7191366   8.6929816  66.9119739  49.4567472
  25.2871415  41.2937901  23.5535274  25.6757528  40.4264052  23.6669141
  24.3556645  41.1640711  23.7317277  35.9707098  62.6985078  18.7114258
  35.7922166  62.8236351  19.6434747  36.4692720  63.4748979  18.4566985
  34.8056459  45.3520312  50.5775306  35.7067948  45.0737881  50.7410642
  34.2890762  44.8917221  51.2389708  -0.0961726  49.3708043  85.8552823
  -0.4890211  50.1771034  85.5209418   0.7301108  49.2914095  85.3786440
   7.9545900  38.6681587  33.6655842   8.6316125  38.3688509  33.0587176
   8.3824556  39.3489193  34.1849377  58.9071036   6.3935261  50.9165823
  59.2575633   7.0797856  51.4844360  59.2529824   5.5796629  51.2829515
   8.8311598  41.4922702   7.7379421   8.4580076  40.8991631   7.0858583
   8.9949382  42.3038667   7.2576093  73.6563226  34.2911053  55.5858653
  74.3027442  34.5648170  54.9351328  73.2944131  35.1104845  55.9233132
  49.2339887  49.2994250  48.7070049  48.6527411  48.5590410  48.5331818
  49.3154824  49.3212470  49.6604798  70.9123775  25.4481766  51.2424479
  71.8005757  25.5720647  51.5770934  70.6384344  26.3211713  50.9612591
  11.6711443  21.6974283  82.4942887  10.8305718  21.7409044  82.0384603
  11.6507806  20.8585218  82.9547809  35.9118335  59.1948054  67.4503629
  35.1740487  59.4033866  68.0234243  36.6765206  59.2201961  68.0255505
  84.5652395   0.9187880  31.8123357  84.0932225   0.1304045  31.5442253
  85.3090975   0.5920999  32.3184800   3.2654501  62.8275876  55.8742168
   3.5483809  61.9132199  55.8848826   3.3679921  63.1206102  56.7796751
  54.3524112  31.3287977  47.7179546  53.8715204  30.7315231  48.2908760
  54.2291230  30.9692351  46.8394634  20.8678980  12.8545211  24.5074848
  21.4939575  12.1761004  24.2544500  20.4479456  13.1111241  23.6864935
   5.9133669  47.6091368  75.2938470   5.0327718  47.2349486  75.3215462
   6.0159428  47.9136840  74.3922035  64.6350970  23.4898784  79.5931476
  64.4602453  22.6641564  80.0446362  65.4101446  23.8424917  80.0304084
  48.1397170  15.7797470  63.0290436  48.6319636  15.6404209  63.8380636
  47.2316966  15.5905712  63.2655669  55.3507917   8.8308264  88.9610901
  56.0473434   8.1776223  88.8949694  54.9339343   8.8245039  88.0994511
  48.7890419  69.7906682  59.8054693  49.4914452  69.1512247  59.6872596
  49.1311302  70.5965215  59.4184191  83.6349658   6.3151394  73.8803763
  84.4988775   5.9721506  73.6518000  83.2630777   5.6561670  74.4666241
  58.7944964   0.0013713  26.9879797  58.6071509   0.4493768  26.1631012
  57.9429983  -0.3194493  27.2850605  67.4262691   5.4533371  23.8532769
  68.1969057   5.6227810  23.3113915  66.8146134   5.0077232  23.2671562
  74.6984157  10.6420604  59.9524422  74.0547599  11.2879416  59.6612780
  74.4926157   9.8547827  59.4483866  74.8388656  34.0615736  64.0596401
  75.2465528  33.2008635  64.1555622  75.4738233  34.5727769  63.5579112
  32.8338728  44.7782036   2.4679870  33.4817971  44.3653066   1.8970737
  32.5543632  44.0785208   3.0583683  81.2555717  70.1728933  23.3402030
  81.1650996  70.8673167  22.6876520  80.4130192  69.7188970  23.3252194
  50.9644863  58.9946681  70.7293756  51.8913320  59.1961867  70.8581354
  50.9125205  58.0425490  70.8130454   4.6666576  64.4134630  30.1245078
   4.3163766  63.7167886  30.6796474   4.2537051  64.2714353  29.2727272
  30.5668818  27.7616906   3.2048471  30.2564030  28.6394841   3.4269133
  29.7790369  27.2182481   3.2190798  82.3362693  22.9179378  86.4494004
  82.7740329  22.1761713  86.8669856  82.4180988  23.6315087  87.0821345
  60.7589734  64.9715538   4.7534775  60.2411662  65.3742095   5.4505972
  61.6622441  65.0225139   5.0661067  39.8251726  48.2220435  47.4701469
  40.7136027  47.8659389  47.4595012  39.6384310  48.4273378  46.5540609
  34.0321857   9.8019825   5.0280239  34.2060159   9.8147085   4.0868263
  34.8990945   9.8384995   5.4322114  14.4799438  67.0710244  44.3347448
  15.1125422  67.4206294  43.7071881  13.8963143  66.5252697  43.8077151
  44.1980054   9.8685705  19.1131329  43.9017113   9.7519840  18.2104429
  45.1510175   9.9283231  19.0465790  38.0734817  36.0170232   0.7590334
  37.4092761  36.1478513   1.4357511  38.7638919  36.6432252   0.9768330
  27.8946102  23.6985065  44.5621186  27.7211996  24.3901845  43.9235716
  27.0523667  23.5540208  44.9933743  78.5719660  16.3856721  45.8063853
  78.3827647  15.7501713  46.4967283  77.8209554  16.9790903  45.8147360
  28.2156102  17.3755253  35.0441874  28.9341997  18.0064801  35.0861034
  28.4992532  16.6520063  35.6030244  61.3130063   6.1097403  42.5864128
  61.2670540   5.2209697  42.2339827  61.5089942   6.6586463  41.8271218
  69.9172590  46.7115774  47.8644652  70.6960241  46.1556295  47.8905163
  70.1297503  47.4484511  48.4372623  14.2636868   9.2242679  17.0724602
  13.4493002   9.5042438  17.4903357  14.8802711   9.9347041  17.2494803
  11.0335574  47.5701875  22.8315460  11.9096909  47.9022697  22.6357317
  10.7973761  47.0500459  22.0634945  51.2030604  36.6503238  62.6189240
  50.9597102  35.7247708  62.6380037  50.7794778  37.0253122  63.3910596
  21.2270371  44.9402307  59.3183204  21.7624106  44.2394801  58.9460899
  20.3248878  44.6529379  59.1775322  79.7875578  41.6197718  52.2994781
  79.8962243  40.7481731  51.9190322  78.8925071  41.6231268  52.6387493
  59.4990009  61.3210727  16.4166167  60.3578397  61.7407918  16.4662521
  59.3797083  60.9172896  17.2762447  73.4941386  29.8463859  37.2161245
  74.0882590  29.5315002  37.8973732  73.8667509  29.5122485  36.4001931
  77.2541773  71.3324587  23.6923112  77.5823622  72.2196244  23.5458065
  76.9337456  71.0510596  22.8353574  31.1546136   2.0483351  12.8979488
  30.2573404   2.2170726  13.1854558  31.6182214   1.7949293  13.6961250
  85.0540711  14.8970498  47.3081427  84.5539046  14.2515613  46.8087332
  85.9691413  14.6898925  47.1185004   3.3955244  41.1885695  73.3214310
   3.3250863  41.6969801  72.5134774   2.9635322  40.3583777  73.1204429
  75.9055830  17.6108078  19.4994558  75.2536683  17.3230531  20.1385461
  76.7253769  17.2190100  19.8005610  38.0476544  67.8686030  29.0763571
  37.6050214  68.6394748  29.4314128  38.9608512  67.9723631  29.3438215
  61.5078323  65.6473819   8.2590037  60.7019311  65.2040730   7.9939901
  62.1919768  64.9871920   8.1479749  41.9005923  35.5326412  35.9375334
  42.3228456  36.3682083  36.1369363  41.0528252  35.7755076  35.5653254
  79.1287633  61.3624366  70.4704232  79.0971432  61.9850729  71.1967537
  79.9682338  60.9146191  70.5752114  58.3096871   3.6234606  18.5263437
  58.3826646   3.8688049  17.6040031  57.4195669   3.8759432  18.7716404
  82.2368519  27.6828508  65.8965308  81.7572425  28.4595382  66.1845644
  82.2148123  27.0942517  66.6510487  39.0342500  39.7475864  43.4653903
  38.0832599  39.7256219  43.5720081  39.2618788  38.8679705  43.1642379
  72.8669695  53.4447063  43.0378341  73.5159533  53.4887875  42.3356171
  72.3094549  52.7030655  42.8025084  60.5524549  31.2742606  85.1178972
  61.0826589  30.5900000  85.5264349  59.7000106  31.2054763  85.5478265
  83.6668215  17.3224631  73.3226126  84.2264307  18.0944702  73.4067227
  83.7891911  17.0353819  72.4177138  69.3080131  38.4816292   3.6903905
  69.4389517  38.5626557   4.6351241  70.1156034  38.8231747   3.3064943
  51.7479848  58.3210020  56.0707293  50.8042730  58.3581342  56.2264893
  52.1094608  57.9524631  56.8767976  52.3872144  65.1100113  39.1793735
  52.3959568  65.8948358  38.6314631  52.3086185  64.3855072  38.5587702
  52.3805895  17.5563769  33.7807490  52.2228758  17.1252815  32.9407996
  51.5324744  17.9290578  34.0216672  22.3076322  50.2261377  82.1524278
  21.5625546  50.1841310  82.7518663  22.1041967  50.9566432  81.5682981
  37.7132818  55.3700735  33.3520885  37.9680583  54.7059622  32.7115599
  36.8065572  55.5816375  33.1300008  56.0293779  47.4553814  62.2667686
  56.8862836  47.3897661  61.8452961  55.4236750  47.0579952  61.6411169
  60.0550039  20.7539444  79.2786033  59.3020398  20.5529583  78.7228322
  60.5651232  21.3855620  78.7715831  86.4434008  50.2257686  57.2354461
  86.0832518  49.3993600  57.5572745  87.1589462  49.9654601  56.6553892
  32.4003490  48.9185980  13.6010239  33.2224667  48.6281848  13.2060370
  32.0895398  48.1587460  14.0932172  69.5821726  47.9684223  40.0849642
  70.2780837  47.6953463  40.6827678  68.8354119  48.1524041  40.6548160
  48.2066908  67.1731791  28.2157098  47.4347960  67.5737543  27.8157725
  48.6926933  67.9090201  28.5879618  83.3511818  16.4948366  36.4982408
  83.7898521  17.2096530  36.9595841  83.6497114  15.7026261  36.9449113
  48.5938679  47.0524333  28.5190067  47.7532130  46.9335707  28.9610506
  48.3630775  47.2066926  27.6029435  86.0929533  17.4525422  48.0692399
  85.8544218  17.9858725  47.3110226  85.5969192  16.6415939  47.9572364
  51.7155604  39.1915294  61.4911466  52.5669391  39.3749296  61.0939684
  51.7159389  38.2447493  61.6319980  51.9257660  50.1811697  39.8581622
  51.4077730  49.4307709  40.1493954  52.0538240  50.0345604  38.9209649
  77.3756695  63.0650943  10.7966529  76.6263086  62.4786521  10.9004589
  77.0361706  63.9303358  11.0254090  70.9016716  55.0178231  14.5308042
  71.7800476  55.2326328  14.8447216  70.5492113  54.4236153  15.1933151
   9.9294177  58.1445533  41.1095779  10.7659526  57.8587526  41.4766734
  10.1451613  58.9275467  40.6030131  62.0511216  15.0846146  61.9328817
  61.5242209  15.6835637  61.4038567  62.8530464  15.5725968  62.1200229
  64.4763296  26.2012726  48.9969379  65.1770823  26.8531697  48.9825262
  64.8702176  25.4354193  49.4147331  75.8978249  53.7002858  66.4433999
  76.6313115  54.2730481  66.2194077  75.6889165  53.2479251  65.6261124
   4.0362048  38.0655351  26.0463313   4.9233935  38.4245548  26.0615949
   4.1180327  37.2070894  26.4617913  43.3032708  43.5746872  58.3040037
  42.7938022  42.9392383  57.8011335  43.5131118  43.1211627  59.1204069
  41.6325154  68.5856268  60.2343415  42.1168194  69.3588115  60.5239393
  41.3395347  68.1690632  61.0448160  28.6884123  55.2956279  78.4132896
  27.8526722  55.3345712  78.8783204  29.3248635  55.6496257  79.0344557
  80.2602256  17.9925212  37.2775785  79.4154307  18.4398216  37.2278217
  80.8398541  18.5128033  36.7211891  19.4604578  12.5255830  78.3190900
  20.4004188  12.6208289  78.4728212  19.3724280  11.6720711  77.8948259
  86.2683419  57.0846470  70.6217158  86.6194604  57.2273905  71.5006765
  85.9920467  56.1681918  70.6200885  54.0403963  60.3944563   3.9049001
  54.2398788  61.2115965   4.3617595  54.1790776  60.5972723   2.9797704
  67.1085762  65.4377451  57.1620073  66.9977666  65.1038409  56.2718045
  68.0327235  65.2873540  57.3609198  44.9953035  52.3388416  47.8640027
  45.7427527  51.7558413  47.7311030  44.9230653  52.4227322  48.8147792
  34.9790992  31.8835908   8.5447144  34.6001152  31.8978340   9.4235774
  35.7658488  31.3453842   8.6318391  80.8324283  47.8636538  56.2511406
  80.3054596  48.5041937  55.7733912  81.6130868  47.7445205  55.7102049
  51.9676660  28.1159157  19.6224070  52.1909743  27.4264569  18.9970976
  52.2348972  27.7646489  20.4717779  14.9147620  56.3253443  53.0829171
  14.4024528  55.5958231  52.7342482  14.6897877  56.3531227  54.0128885
  80.6390803  12.0374632  76.6418997  81.2139024  12.6977908  77.0289125
  81.2206944  11.3065772  76.4327050  81.7819171  62.8320751  27.2995386
  81.1008181  62.1893224  27.1015361  81.4265331  63.6627332  26.9834038
  35.2251219  62.4622765   1.3104985  36.0318652  62.3765639   0.8025118
  34.8564292  63.3014583   1.0346879  27.0175099  38.1920342  63.4236923
  26.9458834  37.2884418  63.1160851  27.0913868  38.1160462  64.3750071
  50.0992220   0.3880298  26.1035157  50.9558859   0.0034262  26.2890929
  50.1825219   1.3015731  26.3768865  48.0418078  60.9329778  53.8347473
  47.2103736  60.4632277  53.9001992  48.6781032  60.2608124  53.5907109
  55.1418980  36.6921671  28.2422153  54.2733631  36.4103519  27.9550582
  55.7102941  36.5184711  27.4918904  30.8466509  56.0860174  39.1253125
  30.9691650  56.4560537  38.2510727  31.6111888  56.3814249  39.6197293
  59.8462025  25.3425255  62.2718149  58.9055213  25.5029957  62.3466484
  60.1674814  25.3770146  63.1728267  74.2469655  14.1302983  65.5197490
  73.8257212  14.9748982  65.6792360  74.6096967  14.2064174  64.6372165
  75.0066187  24.1507272  20.5373174  74.8816510  23.6972633  21.3709752
  75.3853686  24.9959729  20.7788544  36.8045977  67.4862903  57.2861659
  36.8690621  67.7084282  56.3573328  37.7094401  67.3359836  57.5598446
  83.9477504  48.4794926  81.0964638  83.4702317  47.7443134  81.4808066
  84.3772508  48.9013962  81.8406134  63.4407839  46.9327084  22.8251008
  63.8843911  46.3863133  23.4738664  63.2146680  46.3287978  22.1177146
   0.4024238  65.6539458  52.3618921   0.8344348  65.5768484  53.2125709
  -0.5233952  65.7737319  52.5734156  50.4277753  52.3493206  80.7724350
  51.0616419  52.8054972  81.3259220  49.7870909  51.9913845  81.3869569
  45.4400883   6.6436932  75.3453201  46.0644732   6.1615691  74.8031655
  44.8115718   7.0068702  74.7213800   2.3396800  48.0119744   5.6133389
   1.8123408  47.5967612   6.2957927   3.0231305  47.3715565   5.4158745
  56.4121906  25.5093186  12.8291306  57.0546419  25.0229074  13.3457469
  55.8034434  24.8414369  12.5135476  24.4854083  17.3329613  87.2316433
  23.5384167  17.2329776  87.3288134  24.6195848  17.4398975  86.2899463
  27.2064476   5.9984344  21.7963804  26.5060611   5.5900276  21.2875637
  27.0888556   5.6570242  22.6828583  21.6422941  25.2038784  82.6667122
  22.1961155  25.0360617  81.9042482  22.2097019  25.6768974  83.2754265
  34.8770100  67.0217978  46.5576535  35.1632487  67.9351278  46.5689470
  33.9510523  67.0580121  46.7974922  47.2194997   5.6963689  37.5962298
  46.3344794   5.7891834  37.9488717  47.6065648   6.5669552  37.6883825
  33.4504880  31.9848677   3.8295344  33.5315367  32.7678551   3.2849301
  34.0525253  32.1364914   4.5580899  33.3230674  41.5599279   9.3589676
  33.3457341  42.2748249   8.7228542  33.5772799  40.7851287   8.8576752
  57.2890519  59.9659998  25.6465419  57.8044646  59.3252493  25.1566231
  57.9298238  60.6120129  25.9437123  57.7545239   8.5255518  45.5692844
  56.9395237   8.7615348  46.0123629  58.4068197   8.4929529  46.2690553
  46.0073671  17.2951711  10.6259710  46.7891503  16.7811882  10.8281307
  46.3441049  18.1570251  10.3809257  69.9289614  29.3451020  24.6087912
  69.5607964  28.6587693  25.1652386  69.9042566  28.9764740  23.7257652
  65.2541688  14.3820529  26.8170340  65.0218238  13.6753040  26.2147437
  64.4525659  14.5468602  27.3135249  67.5510761  17.0538613  76.3247064
  68.3019980  16.4767617  76.4636456  66.8128872  16.5840068  76.7127088
  42.2922178   3.0836170  66.3353240  42.8593038   3.1398001  65.5662409
  42.3227465   2.1610201  66.5885329  11.1617124  46.6975865  84.4946915
  11.9033768  46.4081097  85.0260756  11.4220054  46.5035237  83.5942366
  31.9541374   0.8914437  19.2334783  32.5686453   0.9362463  19.9660113
  32.2731758   1.5465850  18.6128042  63.1482059  11.9971124  63.5071600
  62.3808047  12.3608839  63.0655749  63.5771593  12.7547154  63.9049897
   8.5144435  62.4984380  21.8834663   9.0441601  63.2873292  21.7682153
   8.6711176  62.2351059  22.7902967  19.2210042  58.8974482  35.9019252
  20.0734452  58.4624963  35.8821032  19.4284424  59.8265319  36.0019490
   1.9590764  36.3944849  65.1675283   2.8472902  36.5011432  64.8270403
   1.5526429  35.7566650  64.5808176  48.3555770  44.8388169  45.4167994
  48.3075792  44.4648740  46.2966260  48.8467171  44.1932323  44.9086324
  31.0885317  32.0804437   5.4418319  30.6959111  32.7663582   4.9018298
  31.9767364  31.9841244   5.0982524   7.8274980  33.9879122  57.8965505
   8.1685173  33.8773203  58.7840792   8.1098374  33.2002915  57.4316097
  18.0337629  12.7138949  15.6097678  17.3220919  13.2777782  15.3067964
  18.7732809  13.3084076  15.7358621  81.5332664  47.0135954  73.0833811
  81.3791417  46.9856897  74.0276791  81.8069485  47.9146626  72.9118944
  69.1880762  20.2742994  25.0442496  68.7345111  19.4379455  24.9392604
  68.5044073  20.8844501  25.3209171  60.5470967  17.0470520  23.0650372
  61.0410653  16.5535911  22.4102676  60.7457909  17.9637517  22.8742128
  55.2908849  11.9272415  49.7114353  55.0015450  12.0522475  50.6152538
  55.7698906  12.7286158  49.5002848  79.4413533  17.2223318  21.6933179
  79.5164603  17.1183773  22.6418874  80.0306360  17.9471289  21.4843991
  63.2139153  32.7769440  48.5404118  63.3584186  32.3314742  47.7056020
  63.2590806  32.0798605  49.1948325  60.6352565  66.8965140  45.7443100
  61.0995052  66.3558595  45.1052500  59.7093764  66.7719252  45.5358500
  45.1049249  38.1519626  62.4890410  45.4241331  37.8362493  63.3344184
  45.2264102  39.1006912  62.5262865  20.4481055  58.2471286   4.9030191
  19.6154703  58.3631609   5.3607165  21.1134362  58.3917707   5.5758085
  27.6695779  65.0798383  44.2048888  28.3800629  65.7086417  44.0782037
  27.5103125  64.7194429  43.3325463   8.8434523  55.3051907  63.0632590
   8.5227525  56.1902115  63.2368150   9.7935383  55.3716642  63.1589129
  39.9548385  67.5643120  50.7199159  39.7312940  66.7066421  50.3584438
  39.4357769  67.6290525  51.5215489  76.8377459  66.1950349  46.2945092
  77.2571106  65.9745577  47.1262272  76.1710816  66.8415794  46.5263946
   5.2828110  46.8120107   2.4499173   6.0780707  46.9988709   1.9510414
   4.7262685  46.3269914   1.8406156  32.4460733  15.6381751   9.0167469
  32.0305204  15.3249474   9.8201373  33.1283797  14.9925902   8.8326006
  22.7726590  65.5002102  25.0424979  23.5312820  64.9263083  25.1490795
  22.7367678  65.6776881  24.1025802  75.0348841  24.0896178  26.6570455
  75.6854243  24.7914363  26.6351351  74.2225137  24.5240787  26.9169107
  81.6155322  37.0398352  34.6602990  80.8411132  36.7662706  35.1518977
  81.8489369  36.2741000  34.1355097  81.0993296  11.6522237  59.8194782
  81.6689416  10.9389038  60.1074863  80.7977479  12.0604691  60.6310298
  35.8223077  18.8843494  15.6079726  36.7408136  19.0668893  15.8061090
  35.8233627  18.6224211  14.6873075  63.1600135  61.5309811  84.0249440
  63.2148979  61.4034375  83.0778685  62.4823848  62.1975195  84.1379832
  86.2660308  42.7187475  21.7728857  86.3781308  41.7771765  21.6420824
  87.1576472  43.0667637  21.7845742  17.6290021   8.4670645   3.6090698
  17.7312917   7.5220252   3.4965115  18.4905517   8.7685875   3.8972505
  75.7441207   7.7846330  18.5674920  75.1213722   7.6155243  17.8605137
  76.6032891   7.7191614  18.1506287  37.4864240  31.7460442  19.9239916
  37.8434486  32.2232259  20.6730329  37.9463648  30.9066414  19.9334394
  68.5071188  24.5096056  69.6569968  69.0030955  25.2902104  69.9037663
  67.7721645  24.8451505  69.1436903  85.0642027  13.2292300  72.7618992
  84.4377570  13.4162409  72.0627393  85.9212567  13.3697482  72.3594752
  54.0529811  32.4265892  82.4575971  54.5805569  32.3022041  83.2465356
  53.9536624  31.5464521  82.0946558  76.3325606  39.0407333   8.0379455
  76.5263673  39.1384932   8.9702082  76.7141238  39.8186427   7.6311305
  76.9036848  49.8759999  32.1658270  76.5880640  49.6287905  31.2966303
  76.8235438  50.8295934  32.1874763  22.3576755  10.2411209  18.5615425
  22.8099718   9.4453197  18.2816135  22.0639010  10.0489958  19.4520572
  82.0219302  27.5465853  48.5092499  81.3464738  27.4236891  47.8422514
  81.5870886  28.0443653  49.2016080   2.4487901  14.1884168   2.0223423
   2.1658648  13.3821557   1.5909165   1.6352964  14.6527309   2.2195027
  14.9000202  63.9983353  83.3108786  14.3730761  63.9921521  84.1099553
  15.7096273  63.5494791  83.5543867  57.3120123   3.6740314  44.9443502
  57.6888613   4.5123909  44.6771987  56.7626641   3.8878216  45.6985003
  75.8842097  46.4172200  44.4960519  76.0211432  45.5008582  44.7363893
  76.1959126  46.9126281  45.2534447  80.7757901  61.0488445  55.2441200
  81.5949874  61.3396495  55.6448443  80.6320404  61.6604903  54.5220001
  52.9825686  49.1114607  31.2568739  52.1665937  49.4859996  30.9250042
  52.7247728  48.6391778  32.0485316  12.9871181  57.9289701  68.1389274
  12.5871944  57.5943394  68.9416198  12.5517961  57.4472470  67.4356000
  62.6217714  25.3568927  61.5949706  62.0201526  25.4172162  62.3370270
  62.0674983  25.4892498  60.8258836  49.1682254  29.8462070  27.8811397
  49.4772987  30.7514369  27.9166981  49.5825064  29.4219798  28.6325613
  67.2165136  16.0587082  45.6221916  66.7939661  15.2945747  46.0143466
  68.1028178  15.7623633  45.4151255  79.4083982  42.7024882  75.3767691
  80.2879729  42.3263361  75.3437562  79.4288984  43.4158953  74.7389118
  59.7326948  13.0775306  37.3690858  60.2255043  12.2569392  37.3685076
  60.1026053  13.5795781  36.6428996  61.7186104  32.2035888  42.5096303
  61.0527345  32.8620376  42.7078381  61.3786753  31.7424734  41.7427871
  63.5395650  58.9987556  15.2034953  62.8638123  59.2218593  14.5633275
  64.3202272  59.4612866  14.8987603  60.8169757  10.9381729  42.2869041
  61.0885290  11.5278789  42.9902799  60.0562792  10.4774592  42.6409035
  84.0044773  37.4018244  73.5202357  83.2346218  36.8936276  73.2647160
  83.6464188  38.1904742  73.9277372  58.3087421  18.7279707  81.0989361
  58.4769375  17.8859331  80.6759529  59.1754970  19.0472751  81.3499590
  82.7592405  46.2883509  22.0864226  82.4713766  46.9925800  21.5055374
  82.2533372  45.5253827  21.8068279  44.2298737  59.9538405  -0.1542167
  43.9691589  60.3612464   0.6717858  44.9483606  60.4994449  -0.4740982
  23.8950502  61.6978972  63.7833418  23.3262013  61.7358212  63.0144435
  23.8624439  62.5818062  64.1492290  25.2569244  61.3022128  82.2308049
  24.6933796  61.0873207  82.9740884  26.1464740  61.1697689  82.5585119
  40.4630321  32.4264440  68.8521490  39.8020359  32.9198269  69.3378333
  40.2948913  32.6399908  67.9343482   3.6763197  30.4677713  77.7419659
   4.2906702  30.2700109  77.0350741   3.4525491  31.3895973  77.6139214
   0.1704811  63.5909789  23.8157650  -0.4968637  63.5101453  24.4971963
   0.5880386  62.7301654  23.7861384  46.0033300  14.9727863  66.5015295
  45.5974917  15.0908588  65.6427013  45.6385201  14.1501610  66.8277707
  75.8493020  33.5051181  17.3560627  76.4312355  33.9581762  17.9662459
  74.9887009  33.5423541  17.7734486  83.4814199  30.3658132  58.1149014
  83.5321994  30.0775256  59.0262430  84.3625426  30.6812560  57.9140268
  36.1002273  37.4681530  46.0728988  35.4132312  37.4720232  46.7394221
  36.9174563  37.4681586  46.5712647  77.2819528  44.1797767  84.5848963
  77.7937028  44.1545394  85.3934177  76.7115172  44.9417326  84.6861793
  11.4573922  59.6774440  43.8293353  12.3217486  60.0859378  43.7818722
  11.5845620  58.8040732  43.4588177  22.7702124  55.1589553  82.9480354
  22.2118374  55.9225287  83.0943401  22.8073660  55.0683191  81.9958608
  79.7768020  43.7932517   0.8799643  79.3782318  42.9277252   0.7892033
  79.0509665  44.3665296   1.1264336  73.7102717  57.2860161  43.8666798
  72.9387643  56.9004199  44.2817986  73.9153700  56.6924850  43.1442621
  14.5069520  56.5429529  55.7425756  14.0307403  56.8749166  56.5036632
  14.8482542  55.6944354  56.0249983  74.4923170  45.4106597  14.4619025
  74.0949450  45.5590864  15.3199800  74.5280308  44.4579867  14.3760514
  62.8126032  55.4103855  48.9114828  62.6066104  56.3399491  49.0100242
  62.2863328  55.1263607  48.1640866  69.0121857  65.6521812  52.8511037
  68.4653579  65.2560924  53.5295761  68.5183226  65.5252142  52.0410355
  55.6048175  39.9621487  80.0054432  54.7214788  39.8141752  79.6677326
  55.6952394  39.3347676  80.7226941  55.3815018  31.2160838  17.7299144
  55.4990346  30.3469319  17.3465180  54.7942279  31.0730419  18.4721274
  70.3225378  48.1179161   6.6686654  69.3665704  48.0697422   6.6747960
  70.6084581  47.2308930   6.8870029  64.2296457   8.6228048   1.8485264
  65.0638877   8.1767921   1.7024280  64.1093260   9.1667478   1.0701428
  59.2776583  45.3967786  68.3823441  59.7546681  46.1112769  68.8044646
  58.3723827  45.7049438  68.3406053  10.3475196   2.7156927  87.2336620
  10.7267946   3.4308981  87.7444100   9.4196779   2.9393216  87.1606434
  62.0873406  13.0731303  68.9152401  61.4003132  13.7277570  68.7899837
  61.8356811  12.3491021  68.3419317   6.5465558   7.9444851  86.0420654
   6.2592564   8.7786455  85.6707604   7.4619995   7.8655327  85.7738093
  27.3589925  68.2227309   2.6479841  27.4418848  67.7212701   3.4590930
  28.1855118  68.7001394   2.5760195  23.7162628   4.4592126  73.1197819
  24.5195430   3.9445797  73.0415141  23.4551346   4.6345970  72.2157441
  64.5843790  65.4297884  18.4705864  64.4354671  65.7348672  19.3655635
  65.4618674  65.7444001  18.2531803  65.8397088  45.7330725  17.2330040
  65.9669120  44.8072424  17.4401028  65.6093360  46.1362784  18.0700137
  54.2672544  49.4530446  22.6710094  54.7658983  50.0479494  23.2310758
  53.9547495  50.0047152  21.9539097  67.8424620   0.6664009  66.7069329
  67.0141847   0.6755994  67.1866244  67.5856664   0.6071068  65.7867307
  85.5339382  68.6713367  10.0615051  85.8636238  67.7738235  10.0166799
  84.5904269  68.5737788  10.1899604   0.6051778  28.4602101  56.2220847
   1.4654172  28.8771959  56.2704877   0.1743606  28.8852619  55.4804922
  69.6996064  70.6297739  63.4556260  69.7067900  69.7864193  63.0029304
  70.6212524  70.8100573  63.6408244  16.2205524  13.6589109  65.3070415
  15.3184602  13.5854988  64.9954775  16.6931781  14.0628919  64.5792667
  61.9483794  53.0514238  45.2822516  61.4827989  52.2886847  44.9391835
  61.4590971  53.2975736  46.0672643  86.4606009   1.1439396   3.6424788
  86.5370611   0.8201634   2.7449518  86.6664179   0.3855519   4.1890310
  25.2974394  16.9515874  15.4491418  25.1301718  17.8940064  15.4591356
  24.7634785  16.6212091  14.7266684  62.9491602  24.1397597  65.0046828
  62.4493611  23.5284784  65.5457631  63.8197374  23.7469310  64.9413359
  25.1467143  45.5989728  66.6632849  25.9283434  45.0631221  66.5285559
  24.4910272  45.2170965  66.0797810  53.0945824  21.6180660  44.7561893
  52.9550951  22.0380749  43.9074446  53.6074371  22.2530204  45.2562341
  14.4044554  44.0591597  52.0919029  13.4490501  44.0888310  52.0413842
  14.6776087  44.9719742  52.0003132   1.1934371  19.6739843  47.2370418
   0.6304485  18.9106346  47.3657771   1.1724486  20.1315442  48.0775359
   8.5277611  49.5532911  68.2188578   9.3879604  49.5703602  68.6383784
   8.1568310  50.4173671  68.3977862  36.4607857  63.1985181  84.3302256
  36.2626386  64.1349567  84.3374691  37.0211280  63.0663475  85.0949342
  20.7185451  24.4251174  58.6673474  21.5230245  24.6471463  58.1985746
  20.8612960  24.7512716  59.5558728   4.0806368  18.5719964  39.4939577
   3.7529392  18.3406416  40.3630498   4.2757030  19.5072674  39.5526874
  62.8553450  40.2270829  21.3125940  63.2573574  39.3586207  21.3323760
  61.9547733  40.0807854  21.6020754   6.0092613  19.2947811  72.8133460
   6.8562670  19.4184939  73.2417248   5.4340300  19.9362736  73.2302731
  48.5232417  57.7842196  80.7090634  48.7246471  58.0668912  79.8170071
  47.5866246  57.9547125  80.8086248   2.5377913  38.4193088  53.0969901
   3.2996166  38.6421925  53.6319452   2.8585940  38.4568616  52.1959311
  12.6978997  28.5515149   6.6436613  11.8150048  28.2690036   6.4050909
  13.2174787  27.7476678   6.6336972   0.6221320  45.2043027  72.3793994
  -0.0265210  44.9577884  71.7200726   0.3573678  44.7273318  73.1659302
  26.9015218   0.5292400  57.1857099  26.1331559   0.9536725  56.8039998
  26.5432503  -0.0735125  57.8372948  62.0189070  54.1678028  24.8254054
  62.6595824  54.8773484  24.7773224  62.0358445  53.7704005  23.9547641
  15.6458531  42.3840849   0.3382337  15.7458706  41.8494938  -0.4494470
  16.4846907  42.3015111   0.7918468  55.7393290   0.5429231  20.2887425
  56.5075141   0.0372543  20.5541151  55.0174751  -0.0850188  20.3178567
  34.3550649  37.7201828  64.2538207  34.2203367  37.1125485  63.5265926
  35.3005474  37.7095934  64.4027588  81.1893684  38.5700219  79.2176513
  81.2564838  38.6949989  80.1642811  81.3326152  39.4421830  78.8501636
  68.7675323  69.9328302  51.2878658  68.3255048  69.9635516  50.4393968
  68.3013106  69.2544441  51.7763957   9.1281140  43.0701844  56.4486689
   8.5583375  42.4604875  56.9175572   8.5869568  43.8480994  56.3136540
  72.1904876  60.1018652  65.0238097  72.1309402  59.2305333  64.6320614
  72.5293698  59.9455249  65.9052565  57.1213812   9.7790686  48.2441265
  56.6319681   9.8080393  49.0662381  56.6135666  10.3248391  47.6437176
  23.3867821  12.9262805   5.7851583  23.1952320  12.2685203   5.1166586
  23.5282467  13.7345491   5.2922877  60.4287035  17.7833288  62.9896026
  59.5840505  17.3351708  62.9454706  60.6480860  17.9712804  62.0770362
   3.5657120   3.6248358  75.7341750   4.0190079   3.2195988  76.4734568
   4.1642794   4.3076493  75.4313306  70.8230906  63.5491238  43.4501253
  70.4360140  64.3526361  43.7976471  70.4027688  63.4296554  42.5984865
  18.8726911   8.5325924  27.8498701  19.0198955   8.4481918  26.9078301
  18.8681305   9.4766390  28.0079432  62.1545350  22.0593362  31.0866036
  61.4677773  21.8965076  30.4400105  62.9626942  21.7884373  30.6510300
  74.8426973  60.4686155  66.7809328  75.4728790  60.0873838  66.1695692
  74.6223939  59.7518166  67.3758258  53.4408390  65.1817634  35.2127335
  52.5079679  65.2705385  35.4079316  53.8181153  64.8103421  36.0101924
  78.3200248  69.7273346  43.6266984  78.6141073  70.5206448  43.1790310
  78.8600100  69.0291537  43.2563049  63.1243800  35.8323007   0.6842606
  62.6243718  36.5511018   0.2975454  63.9981683  36.1968841   0.8249902
   8.0590864  49.2245493  50.4837552   8.1090068  48.5638360  49.7929603
   8.1123321  50.0602864  50.0201386  48.7649889  38.1307994  29.2114116
  49.2160313  37.4800877  29.7493399  49.4593275  38.7190473  28.9146117
  55.4997652   5.9841651  75.7957850  55.8241153   5.9828802  74.8952145
  55.6980261   5.1067572  76.1230154  18.3916192  61.2253031   4.2022178
  18.9262061  61.9080682   3.7969026  18.4057979  61.4330418   5.1364959
  86.3912732  30.8632597  31.2094678  86.8876454  30.2334575  30.6867866
  86.2055969  30.4020933  32.0274420  12.4784855  10.0518863  72.3885327
  12.8577599  10.4541422  71.6071410  12.7645953   9.1392187  72.3509701
  19.6933071  26.0162292  26.3026973  18.9348071  26.2125662  25.7528234
  20.2450602  26.7956274  26.2368288  47.8854740  10.1790868   9.3184370
  48.5725756  10.6630254   8.8602594  47.3158945   9.8539501   8.6212303
  50.1099492  33.0703690  32.2183481  50.7426349  33.4265555  32.8421044
  50.6187971  32.9170093  31.4222411  52.8598991  27.9574767  28.1023429
  53.0039403  27.0181718  27.9874939  53.7374419  28.3220566  28.2173738
  86.1394499  13.1184775  60.8240332  85.3373718  12.6811145  61.1097189
  85.8640429  13.6688614  60.0909163  31.8542457  30.9097001   1.9861525
  32.5159262  30.2780395   1.7043447  32.0221688  31.0316687   2.9205814
  43.3244705  49.6175057  29.2029760  43.6783072  49.6192393  28.3135782
  43.2800412  48.6915059  29.4412660  78.3582012   3.3157511  20.6204590
  77.4042173   3.3113604  20.5421821  78.5434720   4.0104284  21.2523846
  49.2900467   4.1178503  39.9301075  49.6749766   3.2629282  40.1228997
  48.4004206   3.9195333  39.6377589   0.3974353  23.1770818  85.6901629
  -0.1260378  23.7789026  86.2193316   0.8441043  23.7403655  85.0581580
  66.4673101  42.1625126  64.9303840  66.8997930  41.3662535  64.6219009
  67.1646232  42.8175601  64.9603668   7.8743590  17.5319650  29.4791957
   7.8356966  18.2335624  30.1291942   8.2947528  16.8040986  29.9371383
  44.9592690  15.6708870   8.5989269  45.2302084  16.1655474   9.3723186
  45.4585916  14.8557733   8.6489114  13.7374271  41.3524988  45.1114530
  14.1557697  41.6679362  45.9125276  13.4693007  40.4571022  45.3178628
  38.9679491   6.0540546  18.9480463  38.9233195   5.2848644  18.3800793
  38.0556675   6.2424703  19.1682137  79.3635555  42.6145480  14.0049280
  79.9668360  41.9302848  13.7149826  79.7334868  42.9256603  14.8311192
  51.8189061  33.7666376   3.9147690  52.1413641  34.4799928   4.4655657
  51.6863718  33.0374443   4.5205277   5.7438998  34.9851520  20.2672727
   4.8352106  34.7055704  20.3784028   6.1097298  34.9676759  21.1516340
  58.4408505  57.4289768   3.9557279  59.0972360  57.8208136   3.3796603
  58.5957353  57.8369363   4.8076736  72.7251071  29.4648567  66.6334211
  72.9753716  30.3430151  66.9205400  71.7681908  29.4689986  66.6563532
  61.5809010  62.9372335  44.8093844  62.0753708  62.8620340  45.6255195
  61.0707335  62.1286450  44.7630641  67.5718761  24.1194388  22.3377390
  67.4021239  23.8824148  21.4260177  68.3185347  23.5767936  22.5912524
  31.3955539   4.7986719  88.2111442  31.9242850   4.0295362  87.9987637
  30.6041699   4.6988294  87.6820179  59.5006378  65.3489743  74.5107038
  60.1829466  65.5115646  73.8593583  59.2692231  66.2184607  74.8373113
   7.2044318  47.0216401  22.7948142   6.8150847  47.3455010  21.9825614
   7.9623252  47.5880835  22.9396287  42.5964322   9.7412450  21.2546756
  43.1616617   9.9891569  20.5230425  43.0995759   9.0826641  21.7335800
  57.9292290  67.8415062  44.8339006  57.0850180  68.1224306  45.1869177
  58.4632494  68.6358824  44.8293839   2.6095374  69.8443775  47.3874934
   2.9897094  68.9660386  47.4023865   2.0735463  69.8599558  46.5945857
  32.3479790   6.7715964   5.9247178  31.8710130   6.8360475   6.7521121
  33.2694754   6.8448324   6.1731384  23.0914220  47.0104752  47.3943746
  22.9266895  47.8704269  47.7811280  23.6195925  46.5513528  48.0474247
  36.0095403  49.7592202  42.5925170  36.8636969  49.3787582  42.3878297
  35.4819679  49.0177169  42.8892865  36.5277130   1.0165970  19.3058998
  36.8949324   0.2291653  19.7075626  36.0797962   0.6989360  18.5218757
   3.7201559  26.2573659   5.5975744   4.4647939  26.3160065   4.9989867
   4.1136063  26.0865624   6.4532933  60.3394462  19.7649202  50.8941592
  59.8371613  19.4886143  51.6607077  60.0161874  20.6448068  50.7004195
   3.3024190  25.4025347  60.8974550   2.4497267  24.9723105  60.9611331
   3.5952154  25.2228686  60.0040222  81.2621123  54.4085517  64.4121740
  80.9726235  54.0795499  63.5611829  81.8492426  53.7294756  64.7443869
   7.5287373  27.3224422  72.6241797   6.8449426  26.8168822  72.1847873
   7.9018419  26.7156040  73.2635326  76.4831579  33.7731163  41.3288685
  76.5515233  33.1063028  40.6455546  75.7559892  34.3291317  41.0490393
  41.3667002  65.6150308  89.1198005  40.8579443  65.8872911  88.3560770
  42.2606279  65.8962398  88.9247452  52.8511400  42.5236624  43.7831215
  52.3868688  42.5650525  42.9470766  53.2910752  41.6736384  43.7709557
  38.6326698  53.4524954  31.6314012  38.1096506  53.3631918  30.8347159
  38.7806738  52.5528381  31.9228517  41.1062202   9.8178671  64.9982747
  40.6496968  10.1744027  65.7603119  41.5718608  10.5667476  64.6259998
  58.0921576  48.6387728  32.6482311  57.3384120  48.0490467  32.6302723
  58.1837783  48.8823765  33.5693688  39.3750495  38.9923661  31.9030798
  38.7302011  39.6838002  31.7536770  38.9021275  38.3280434  32.4043303
  13.1908751  14.2332673  84.8812258  13.6380528  14.7970838  85.5123952
  12.7298790  14.8403572  84.3022990  41.0137920  10.1699189  16.5438854
  40.5623676  10.1222262  15.7011676  41.8143067   9.6609658  16.4159209
  86.6613157   5.3551782  38.7262220  87.0518066   5.2104611  39.5880837
  86.4014263   4.4823800  38.4314125  77.4623340  51.3022319  75.1289323
  78.0606515  51.8760035  74.6503571  76.7295205  51.8685554  75.3707874
  38.6063447  18.8498628  18.5587910  39.4492363  18.5153372  18.8651537
  38.7882727  19.1920290  17.6835445  54.1994492  17.5963958  16.1742710
  53.6438474  18.3417517  16.4022690  55.0789045  17.8622201  16.4428370
  18.6089024  18.0896684  80.7422645  18.9810242  17.3629466  81.2418971
  18.3292844  17.6943002  79.9165953  82.2842233   0.8223468  44.8189579
  81.5197283   0.6666003  44.2644110  81.9300985   0.8709850  45.7069116
  47.3464994  46.9106670  70.7293380  47.9364486  46.8558447  71.4811267
  47.9281514  46.9304739  69.9693904  54.0398438  35.1969850  39.2399197
  54.1334138  34.6600512  40.0267987  53.6756614  36.0238182  39.5560682
  40.6502386  26.8715354  79.6433189  39.7768009  26.5298447  79.8345932
  40.5215475  27.4511733  78.8925257  80.3187279  53.0079198  18.3320870
  79.9609990  53.0635474  19.2181838  80.4679288  53.9182042  18.0764443
  78.4376747  67.0770379  54.4324701  78.6788014  67.8264661  54.9769397
  79.1157273  67.0432005  53.7576875   1.9306122  39.6857896  25.5144664
   1.9262698  39.8587650  24.5730353   2.7502780  39.2158435  25.6678629
  74.8985708   8.0908676  -0.1351922  74.8339838   7.8881678   0.7980672
  75.2298694   7.2856512  -0.5328097  60.2427539  51.5285714  29.6615449
  60.8341313  50.8863786  29.2689982  60.6714653  52.3713512  29.5126805
  56.5296885  39.4350917   0.4646545  56.3665953  38.5107669   0.6524207
  57.4760573  39.5367411   0.5660715  64.5498171  54.8932751   0.3304829
  65.0344616  55.5070926   0.8823702  64.5778996  54.0657703   0.8107735
  75.8783793  54.0690905  45.0988533  75.8017012  54.7521935  44.4327283
  75.7629965  53.2503088  44.6166550  82.0168901  66.0941954  55.6001465
  81.1856784  65.6219360  55.6480012  82.6299961  65.4624561  55.2243298
  34.4338803   0.8374359  15.8694753  34.8482650   0.1768928  16.4246330
  34.5601142   0.5140068  14.9774605  17.9352647  53.2098701   3.6826614
  18.5567395  52.9611415   4.3668653  18.4318323  53.1316002   2.8680902
  82.6855126  45.4836618  15.2592388  83.0809141  46.1837273  15.7786595
  83.3136944  45.3239827  14.5548796  59.8345784  53.6948594  38.5417498
  59.5230324  53.7989162  39.4408288  60.3816342  52.9098020  38.5671791
  83.8707737   0.2971085  21.1790225  83.9275999   0.8027171  20.3682436
  83.0832348   0.6265366  21.6120253   6.5160023  53.9722140  47.4936186
   7.2930022  53.5512007  47.1258539   6.7371335  54.1219297  48.4128129
  74.0105684  15.2824018  29.3692645  74.2090339  15.3511301  28.4353910
  74.8124760  14.9348167  29.7595986  86.1908949  47.4839784  79.1847970
  86.6054728  47.6443836  80.0325158  85.2584197  47.6319215  79.3423872
  44.5612768  45.6395436  63.4460643  45.5021787  45.6223420  63.2710227
  44.2714570  46.4893986  63.1144279  65.5182119  69.0743437  67.7630469
  65.8454252  69.4251658  66.9347431  65.7474308  68.1453616  67.7369172
  69.1813494   3.0715406  22.4507340  69.7286664   2.9566654  21.6738945
  68.3427851   3.3819586  22.1091458  46.8564754  19.7736625  10.4432299
  46.5246073  20.3246386   9.7343430  46.4049331  20.0915279  11.2250886
  12.9586284  40.3283270  53.9947862  13.8306017  40.6343167  53.7452572
  12.4362130  41.1270933  54.0674935  20.3219370  53.4119303  80.6957189
  21.2096102  53.0586861  80.7547678  20.3169044  53.9118503  79.8794552
  16.2196786  33.0351467  11.8251669  15.9855500  32.3675285  12.4699162
  16.7349555  32.5648789  11.1697511  78.6349540  11.5935288   6.5821975
  78.8118762  12.4347776   6.1612095  79.4141746  11.0673508   6.4027990
   0.5506061  58.3574427  44.3634241   0.8479114  58.8951813  45.0973714
   0.1233537  58.9760126  43.7709222  37.8325370  64.1977470  74.0827210
  37.9387797  64.5102338  73.1842244  37.3048613  64.8723764  74.5101147
  84.4632572  20.5347775  80.7938348  85.3572679  20.7763298  80.5517001
  83.9458715  21.3196059  80.6133129  21.3532165  70.3526202   1.4354265
  22.2576541  70.6079424   1.6171820  20.8388300  71.1348290   1.6348954
   8.5066998  67.3152219  14.3134516   8.8253498  67.9654195  13.6874028
   9.2932941  66.8478234  14.5945920  84.3419610  30.9329114   6.4745820
  84.3128503  30.0856587   6.0301190  83.4471711  31.0713577   6.7850905
  65.6999612  62.8969319  27.7899910  66.2313137  62.4582828  27.1255489
  66.1518090  62.7178402  28.6146070  75.7309094  13.3527330  63.3361343
  75.8482385  13.3261024  62.3865257  76.6207307  13.3296218  63.6881509
  28.9346051   3.2150071  74.1926321  28.7927028   3.2352036  75.1390398
  29.8781983   3.3381895  74.0892406  59.3133865   8.1045586  14.8630323
  59.1207865   7.1769404  14.7264246  60.2362971   8.1950238  14.6257897
  82.5184715  33.1060892  66.6472235  82.9785544  32.6025842  67.3188174
  83.0710585  33.8743002  66.5032400  56.4557285  19.1611454  79.0153221
  57.1811700  19.1362359  79.6392981  56.3524306  20.0892328  78.8050482
  30.5023508   2.8744131  86.0962840  29.8141500   2.7429832  86.7484632
  30.1283766   2.5373230  85.2821922  68.7262346  36.1444748  75.7882690
  68.2567331  36.5789967  76.5003020  68.3368767  36.5030433  74.9907348
  46.2502022  43.9677128  11.5722884  45.9122638  43.0964931  11.3649101
  47.1998228  43.8535467  11.6099544  71.8407071  64.9031983  27.6260940
  71.5870298  64.5588217  28.4824143  72.3013571  65.7188681  27.8228584
  42.0649083  32.8944004  82.5594942  42.4501173  33.4537952  83.2339742
  41.6954991  32.1556568  83.0432572  66.3359825  32.3742063  60.4438159
  66.7035559  31.7593988  61.0787437  65.8757155  33.0224472  60.9768917
  69.1822276   3.8628566  51.1738388  68.6595967   4.5126273  50.7038529
  69.2481111   3.1247642  50.5679421  58.1665054  27.2138413  69.3898731
  57.9590866  27.1213927  70.3197454  59.1230816  27.2069553  69.3560132
  73.8730383  71.7727563  77.6529087  74.3040030  71.2557394  76.9723245
  73.5747506  71.1258824  78.2922915  40.0772709  31.9837062  22.3769237
  40.9803686  31.8025750  22.6373806  39.7982799  31.1934302  21.9144740
  26.4681216  42.3685516  12.7520516  25.7863997  42.2839017  12.0854772
  25.9913438  42.3814863  13.5819597  52.0704739  27.3862800  12.9665930
  52.1197269  26.9257450  12.1289096  51.5159968  28.1462499  12.7898654
  46.3718348   7.5748637  20.7328992  46.2332647   7.8350292  21.6435825
  45.4905410   7.4309190  20.3881776   1.3793726  45.2037350  31.3888302
   1.6680133  45.1183233  30.4801921   0.4326135  45.0673141  31.3532159
   5.9018970  42.9206708   6.8721786   5.9304373  42.0343256   6.5118877
   5.0995314  43.2994655   6.5130744  23.5811533  35.8257181  68.8202946
  24.0292276  35.2637545  68.1881093  22.6952326  35.9207815  68.4705240
  63.9422832  61.1185402  17.4999177  64.8513706  60.9137322  17.7186539
  63.6893364  60.4430836  16.8706260   3.2143858   6.8032792  23.9184255
   4.1603366   6.9489755  23.9318922   3.0844313   6.1357327  23.2448342
  47.5114056  41.9766657   9.8566163  47.6199703  41.4422490   9.0699497
  48.3932036  42.2910661  10.0561570  43.6681727  19.3279501   3.5980766
  44.2156706  19.3317614   4.3832284  42.7793943  19.4669391   3.9251649
  16.0178796  25.7028017  81.7168726  16.8052403  25.8775977  81.2013715
  15.3247676  25.5933135  81.0658427  49.4823508   1.4819494  31.1141870
  49.1564953   2.0626186  30.4265291  49.1731194   0.6124897  30.8599282
  62.2605824  59.5174608  32.0633268  62.9613465  59.8435582  32.6279700
  61.7951960  60.3045713  31.7802997  31.6139765  48.0257737  59.5291139
  31.2992316  48.9113276  59.3475605  31.9053841  47.6961713  58.6790105
  53.2426334  18.6870650  54.1945724  52.8828646  18.1628095  53.4790625
  53.5304597  18.0433658  54.8419047  77.4656602  69.4328185  34.9896057
  77.0821745  70.2999702  35.1208250  78.3216246  69.4825803  35.4151413
  46.2255724  66.5813276  48.4936079  46.0093875  66.8042745  47.5881851
  45.4821915  66.9031510  49.0035553  83.0627339  60.8824472  36.3770649
  83.7967502  60.4901192  36.8498553  83.4730291  61.3953123  35.6807466
  34.1807173  64.0057464  42.3893976  35.0271171  63.5798445  42.5252160
  33.9267362  64.3164295  43.2584209  26.4425853  51.1666873  81.0831991
  27.0716487  50.6292012  81.5644679  26.1621731  50.6127267  80.3546880
  61.1237771  18.8986853  82.1461928  61.3709186  19.4918150  82.8556646
  61.5834644  19.2388050  81.3785744  61.7868364  68.4563680   7.4360108
  61.7829858  67.4991850   7.4402084  62.6866099  68.6912696   7.2091614
  57.6418154   5.3927568  67.1677631  57.4496094   5.3279688  66.2323000
  58.5478842   5.6991068  67.2054566  17.8402055  24.1589187   0.1465569
  18.3243380  23.9029112   0.9316096  18.4394406  24.7360384  -0.3268162
  32.3112817  57.9523508  28.3128981  32.9575794  58.4904543  27.8557594
  32.2136152  58.3704028  29.1684246  85.7605071  30.8629594  22.3702884
  86.3857708  31.4398633  21.9315870  85.6089546  31.2761933  23.2202893
  63.9666223  41.0448154  61.6876328  63.6546248  40.2174600  62.0542013
  64.9013920  40.9031487  61.5380740  16.9670497  21.2632758  83.5321725
  17.7766541  21.4250864  84.0165173  16.5253829  22.1122823  83.5134596
   7.5067213  19.8110569  87.2319406   6.6290448  19.8642078  86.8536673
   8.0897461  20.0842753  86.5236570  38.5765388  54.3074635  13.3957025
  38.9705208  53.8558206  14.1420460  37.7616881  53.8328350  13.2314527
   2.7957525  31.8565584  16.9415709   2.4465789  31.0888688  17.3942985
   2.4202027  32.6021592  17.4098376  75.8656229  50.7287999  68.7296824
  75.9192213  50.8728445  69.6744629  76.3207036  49.8987452  68.5877580
  27.7365237  15.2570374   1.3480541  26.9454319  15.6739182   1.0065634
  27.5208695  14.3250372   1.3812319  76.6716083  14.6018606  18.6861111
  77.2731284  14.3216673  17.9962580  75.9133273  14.0254337  18.5913813
   7.3203248  65.1635597  47.7343662   7.1898548  65.3731744  48.6591749
   7.6640074  64.2701927  47.7374398  71.4918797  69.9040420  71.7196506
  70.5887384  70.0814430  71.4567882  72.0245733  70.3128131  71.0374662
  59.4908407  14.4667638  75.7240011  59.6708371  14.8168272  74.8514825
  59.0978425  13.6091993  75.5616211  69.9322434  27.4169719   5.9418618
  69.6437780  26.6329365   5.4746274  70.8195048  27.5751129   5.6193862
  10.1215661  36.0605094  12.1708645   9.5981013  36.8613182  12.2012217
   9.9140786  35.6707898  11.3215710   9.5853755  48.8712728  88.7478666
  10.3359627  48.3023283  88.5771247   9.9280773  49.5528415  89.3260113
  30.3711981  35.0787826  84.7366192  29.9905732  35.9528279  84.8226510
  29.6171028  34.4981518  84.6344428  85.2927484  57.7602746  25.0786958
  84.6719343  57.0428839  24.9515259  85.1296551  58.3512918  24.3436236
  23.3013201  47.1520704  35.7736552  23.7373517  47.8308775  35.2585541
  23.0079319  46.5112775  35.1259364  21.3083796  55.2662921  59.2433899
  21.8063555  56.0362187  58.9686812  20.6539707  55.6089764  59.8521166
  33.5031666   3.7710495  11.1508825  33.9850866   4.5777500  11.3331441
  33.0696980   3.5590328  11.9775540  60.7438439  21.4587204   8.8154944
  61.6696727  21.3683808   8.5898584  60.6990682  21.2231183   9.7421651
  68.5146324  58.6197893  11.4666809  68.2876377  58.2500673  10.6134454
  68.2186467  57.9641935  12.0982017   5.7587045  63.0118133  43.2671135
   4.8066532  63.0323410  43.3641119   6.0772868  63.6623856  43.8928074
  29.8492171  21.7314839  10.2251544  30.4856713  21.7856116  10.9380556
  29.0902282  22.2197949  10.5440905  78.6020277  58.4957882  38.3449218
  79.0323357  57.9842901  39.0300762  77.9297325  58.9968707  38.8066223
  79.8862306  15.8773227  62.1660182  80.2540687  15.8386765  63.0488735
  79.7817296  16.8125314  61.9908152  28.1784075  48.1119942  53.8576957
  28.0287696  48.5927559  53.0436266  28.4340637  48.7842372  54.4893294
  44.2621836  17.5689655  73.5919038  43.4455206  17.0908637  73.7358204
  44.2398146  18.2796103  74.2327747  78.6737458  54.9931589  33.9964985
  79.2707268  54.4299637  33.5038965  79.1242688  55.8363791  34.0438323
  38.6162225  47.5436295  69.8153459  39.3775384  48.0780939  69.5895634
  38.5485877  47.6132974  70.7676083  42.2156999  42.9752089  34.9744917
  42.4283543  42.4974401  34.1727767  42.8538583  43.6879906  35.0049551
  52.0842742  59.7634002  40.6871245  51.7952891  59.7640181  41.5996589
  51.9890272  58.8532786  40.4063424  64.2380655  37.3269943  46.6617488
  64.8220280  37.7820124  46.0549719  64.1511465  36.4467677  46.2958553
  84.7275466  71.9579027  18.2455127  84.1033269  71.2325880  18.2678808
  85.5863101  71.5354252  18.2619359  68.1409666  25.5790837  14.4387581
  67.2885029  25.4700236  14.0172803  68.7727133  25.5091696  13.7230488
  18.6915026  29.5297629  69.6883912  19.5172083  29.1604752  70.0015500
  18.1741101  28.7692089  69.4236375   1.5893861  57.3360932  73.6745552
   1.5348835  58.0871384  73.0836302   1.2102772  56.6116947  73.1768052
  71.8620339  67.0621101  66.9512694  72.5056771  66.4078115  66.6795182
  72.2570875  67.9005051  66.7119825  77.1410643  25.1734241  49.9156157
  76.9215171  25.7743098  49.2035994  77.4815493  24.3946430  49.4753865
  59.6940976  14.4884228  52.9595694  60.5069446  14.1143111  52.6196400
  59.9799614  15.1795455  53.5569496  74.2268400   8.8661192  43.2509785
  73.7088727   8.5383976  42.5157641  74.4664673   8.0813114  43.7438144
   1.3641190  60.9593101  18.6262200   0.8087825  60.7175871  19.3674373
   1.7082904  61.8223690  18.8562354  81.9572311  34.6277880  29.5004788
  81.6234409  35.4625546  29.8290831  82.4636908  34.2688409  30.2290990
  43.9628033  63.5968493  58.7655765  43.4298786  64.3842621  58.8760493
  43.5137999  63.0975046  58.0834603  23.5848566  67.4526547  26.9623976
  23.0834882  67.1143791  26.2204872  23.7009695  66.6965052  27.5377127
  15.3127507  20.9709512  77.2765933  14.9264700  20.4640336  76.5624129
  16.2326760  20.7066646  77.2876308  37.8821448   0.9937813  47.1226233
  38.4327482   1.5774238  47.6445707  37.2877041   1.5802252  46.6546964
  16.0993838  69.8615354   8.4488485  16.9439367  69.8222654   8.0000499
  15.4857570  70.1623684   7.7786295  42.8352244   1.0254045  75.5930961
  43.5529793   1.6585570  75.5797645  42.3811341   1.1954543  76.4183942
  49.9701420  69.9524590  87.5626857  50.6501512  69.5139935  87.0512491
  49.4599436  70.4391525  86.9153381  16.1261068  49.9802394  40.2544815
  15.7015330  49.1238398  40.3049662  15.6412680  50.5248647  40.8745996
  48.5586533  51.1913749  83.0335164  48.9762204  51.8208632  83.6214059
  47.6209114  51.3542797  83.1351731  36.1152280  35.4826017  70.6756177
  35.6800029  35.8700923  69.9162351  36.1311039  36.1842900  71.3264736
  48.6356287  30.7720263  72.3187904  49.5128754  30.4405487  72.5106043
  48.0547181  30.0346647  72.5060673  65.5201131  58.0586708  33.2658719
  65.2749966  57.6021172  32.4610685  65.8787891  57.3736612  33.8300927
  36.2132121  45.6889739  53.7977827  37.0361487  45.4004949  54.1924815
  35.8660948  44.9067643  53.3689591  19.2889154   8.7495653  84.2215560
  18.5367111   8.3619369  84.6689538  19.3038410   8.3231088  83.3647341
  10.8302114  52.4071021  66.9619324  11.6622363  52.7618297  67.2751969
  10.5411205  53.0287691  66.2939590  63.3109650  16.7690978  56.3533648
  63.8646809  16.1714803  55.8508871  63.8991544  17.4773005  56.6154981
  20.0371374  52.6517768  42.4222507  20.9930284  52.6158009  42.4570345
  19.8007533  52.0561288  41.7112248  62.6857486  11.9148381  49.0054212
  61.8959439  11.3873539  49.1245885  63.3949438  11.3615282  49.3327163
  16.3296802  27.1479924   8.7890579  15.8470929  26.5752840   8.1929485
  15.8611228  27.0774534   9.6207489   5.4691179  24.0932756  24.8755384
   5.6104611  23.8898693  23.9509413   6.0381757  23.4831304  25.3447162
  68.0737290  39.5117231  27.0374317  68.4674992  39.1450691  26.2457616
  68.6061671  40.2822500  27.2349915  75.9444148  46.0630726   4.2362853
  75.8525492  47.0158320   4.2298028  75.1896547  45.7530753   4.7367558
  30.8841552  45.3826876  60.2384129  30.2338313  46.0520406  60.4511973
  31.4650278  45.8055848  59.6059756  13.7549387  50.1762422  83.2146717
  13.1824196  49.4805045  82.8915575  13.2627700  50.5783558  83.9304277
  74.6051080   6.7171624   2.3818819  74.4235117   5.9544153   1.8328177
  75.4547138   6.5285692   2.7804223  16.1696826  10.3197006   2.4816452
  16.5907396   9.5846462   2.9273333  16.8793584  10.7477066   2.0026849
  72.4047597  41.6245767  39.7697582  72.4311165  41.3485826  38.8535899
  71.5270956  41.3846425  40.0670275  60.6233324  10.8738243  27.5885709
  61.2285698  11.1259525  26.8911823  59.7915297  10.7211292  27.1402179
  14.7726528   6.1397068  87.6820992  14.9115595   5.2097367  87.8612432
  14.7604443   6.5509003  88.5463924  45.6144225  50.1869116  36.4816491
  45.6185909  50.7003314  35.6738035  46.4851695  50.3217342  36.8556201
  80.6950974  22.2915835   0.6005832  81.0281065  21.4270593   0.3598870
  80.0241023  22.1147389   1.2599188  44.2520145   0.8015702  19.1337623
  45.1498573   0.6367275  18.8457746  44.0106583   0.0171520  19.6263748
  42.8868976  70.2373275  16.2068380  42.6366362  69.7358627  15.4308650
  43.5023585  70.8934364  15.8797893  82.2425421   3.7806356  39.9985206
  82.9084638   3.1010609  39.8938378  82.1139274   4.1279293  39.1158671
  55.4753371   4.8575182  60.6930004  55.6904892   5.5465601  60.0643807
  55.0230013   5.3135136  61.4027133  64.5956316  17.6120175  17.7788426
  63.7408033  17.2915029  17.4911436  65.2240244  17.0123193  17.3767028
  30.2449650  29.9436240  86.9446870  30.4340049  29.1666703  86.4185322
  29.3499180  30.1834587  86.7046826  82.8135009  54.9324283  84.0728088
  81.9806811  54.6695441  83.6809734  83.4604706  54.7823383  83.3835084
  22.2400419   0.5505929   3.9343008  22.7846761   0.5882146   4.7205514
  22.8313734   0.2417540   3.2478771  40.5811256  69.0295504  56.6790044
  40.0957202  68.5490044  57.3495929  40.9818338  68.3483243  56.1390083
  38.1291790  44.1400595  74.8485443  37.8880398  44.3646122  75.7472432
  38.9798805  44.5587011  74.7170984  37.3985019  46.4578788  19.3586112
  38.1269817  45.8474259  19.2450498  37.6221483  47.2038554  18.8020746
  84.1808274  21.3518980   6.6492433  84.7225071  21.6454270   7.3818111
  84.5726145  21.7663765   5.8805156  54.6854083   7.0317282  16.9824843
  54.2664792   7.6737346  17.5556842  55.5868696   6.9793215  17.3000579
  86.3872735  26.5179929  51.6530315  87.1642550  26.6747512  51.1164139
  85.7085250  26.2703908  51.0251578  83.9023190  16.0575770  61.1425023
  83.3491258  15.4184717  60.6933325  83.3901598  16.3226886  61.9064660
  81.1144278  10.4348140  67.2536362  81.6661015   9.9715508  67.8839339
  80.3118008   9.9150531  67.2103891  54.8358028  68.9528160  52.4234509
  55.0689983  68.2279817  51.8433933  55.2919167  68.7602638  53.2426674
  46.2275791  21.7158272  74.5570736  46.4885775  21.8547294  75.4674680
  46.6178222  22.4491469  74.0814851  41.2640731  63.6949198   2.2001351
  40.9888753  64.0331810   1.3480334  41.5009334  64.4746796   2.7022344
  28.7284526  43.4954417  62.0758000  29.4380686  43.4350644  61.4362443
  28.8913333  42.7737367  62.6831249  -0.1243947  59.9831236  12.6070074
   0.0668296  59.2624034  13.2071969   0.0885175  60.7723909  13.1049607
  47.3372684  10.1629411  15.5470428  48.2901345  10.1854745  15.6351921
  47.0590322   9.4595944  16.1336601  34.5328226  56.0946509   6.0882055
  34.2425274  55.1900812   5.9710980  33.9016888  56.4712493   6.7014555
  10.7908205  35.0000097  59.1583100  10.4269126  34.1207119  59.0551680
  11.6560216  34.8576344  59.5422216  83.9737159  21.9756350  25.4221470
  83.7550332  21.0489292  25.3240340  84.7710465  21.9788039  25.9517562
  29.1617025  18.1261389  80.9544074  29.7086866  17.9595551  80.1867551
  29.7779160  18.1525711  81.6864007  82.8776578  34.7980408  33.5966572
  82.3722952  34.0679871  33.2390792  83.4880042  35.0320629  32.8974127
  60.6978768  56.3714928  14.6280249  60.0602462  57.0084079  14.9505124
  61.1942781  56.1149854  15.4052131   9.0934003  54.8046640  16.0061666
   8.6792938  54.0112253  16.3455821   8.8166199  55.4955505  16.6080805
  31.8590407  43.7200643  16.2522732  31.2140757  43.0133906  16.2816696
  32.1564175  43.7352351  15.3425651  63.8015856  64.7898766  48.8974126
  64.7493909  64.9145526  48.9459184  63.5816425  64.3119558  49.6970679
  56.2321620  13.2959229  70.7316018  56.2169229  14.0019265  71.3777895
  55.6856448  12.6093947  71.1140020  77.4797492  64.2328372  83.9116912
  77.7566135  63.9420845  83.0427603  77.7436355  65.1520588  83.9520341
  50.0100005  30.5066802  85.9225779  49.8067700  30.8643150  85.0582709
  50.0393060  29.5593087  85.7889353  64.4215946   6.9221291  81.4691842
  64.2336196   6.8985266  80.5309197  65.0511910   7.6361251  81.5694333
  37.7895141  69.2732410  88.1267078  38.1129110  69.5143414  87.2586543
  38.3589820  69.7454467  88.7341286  35.5499735  60.1124391  45.7851136
  35.8699559  60.2638019  46.6744574  34.7760544  60.6707861  45.7107519
  85.3024737  70.5213010  23.9958515  86.0963237  70.4470219  23.4662133
  84.9805327  71.4058366  23.8221202  31.7463187  46.4233223  49.4666746
  31.5107184  46.0241666  48.6291789  32.6076673  46.0595148  49.6715026
  85.6249554   8.6193168  63.9065207  84.8908433   8.1698504  64.3251986
  86.0058946   9.1552073  64.6021777  45.3785259  40.0697149  73.0479480
  44.6965455  40.2710026  73.6887428  44.8991155  39.8456930  72.2503193
  61.8724115   8.0403042  35.8260185  61.6983029   7.6921816  34.9515308
  62.1395003   7.2773897  36.3387141  64.8116617  24.3009152  18.6739259
  63.9518059  23.8828573  18.7198327  64.8538755  24.6654043  17.7898458
  46.5125096  25.5747575  59.4581354  47.1743433  26.2069249  59.1778276
  46.6065753  24.8431360  58.8481244  40.4570793  16.9066020   5.5810351
  40.6640667  17.4492449   6.3419075  41.2909150  16.5023377   5.3412013
  45.5413693  64.6779897  41.8210894  46.2831800  64.2063308  41.4422932
  45.9406043  65.3862748  42.3262383  74.7179282  33.2095935  47.2553781
  75.3193766  32.4820539  47.4140539  73.9218965  32.9701479  47.7299632
  59.0533049  33.8835042  27.2124056  58.9360728  34.7612171  27.5758727
  59.9788570  33.8457939  26.9712355  81.7772890  32.1501558  12.6709369
  81.8518965  32.4482221  13.5774809  82.5702241  32.4764732  12.2454928
  30.3061137  53.2400590  64.0713437  30.3654218  53.6672289  64.9258847
  30.7641403  52.4076078  64.1873975  82.0293045  46.4777630  61.0049712
  82.9250903  46.1613433  60.8880170  81.6847960  46.5558285  60.1153356
  33.5927863  40.0847065  70.2899452  34.4674032  40.2783130  69.9526120
  33.1793432  40.9422205  70.3897771  37.3047762  40.2302075   4.8688966
  36.9645027  39.3355480   4.8634062  38.1069334  40.1781816   5.3885783
  27.3621300  69.8184598  87.4794408  27.2144431  70.4617152  86.7861566
  28.2367937  70.0207630  87.8115079  32.1682273  54.9530126  30.3590162
  32.9898556  55.4411386  30.3052406  32.2454103  54.2790258  29.6837264
   5.4642607  33.3114708  13.7439663   6.3318083  33.2413712  14.1423116
   4.9946145  32.5376035  14.0550834  27.3018111  37.6037784  12.7161576
  26.6510458  36.9665171  12.4218203  28.1214913  37.3101674  12.3184784
  20.6616041  61.3546216  77.4159193  21.5677784  61.0655272  77.3086609
  20.1411762  60.6756990  76.9864419  84.5633434  26.6240148  84.3139933
  84.4855788  26.4403806  85.2501894  85.5023901  26.7411110  84.1700777
  60.2191398  18.6514841  29.1749367  60.8417191  18.1718083  29.7213231
  59.9648521  18.0262667  28.4962080  30.6756800  46.8523752  70.1779169
  31.1207544  47.6621316  69.9280466  31.3783939  46.2752526  70.4768393
  52.0444331  30.1035345  32.9067669  51.5186511  29.3174518  33.0546148
  51.9093569  30.3116526  31.9822815  39.0617033  61.0300871  24.1797236
  39.9501654  60.7210466  24.3568132  38.8679641  60.7100713  23.2986521
  70.3705234  59.3114213  42.8087599  71.0633017  59.4074881  42.1552606
  70.8351809  59.2529298  43.6435676  46.8495944  35.5503641  17.1826292
  47.4120937  35.8876413  17.8798167  46.7262148  34.6264439  17.4003002
  77.3622838   1.5184389  32.0683350  77.0811292   1.7714477  31.1890339
  76.6169707   1.0383445  32.4292361  76.5390150  63.9198495  78.3333754
  75.9999125  64.0639013  77.5556548  77.1861970  64.6247223  78.3101041
  51.8422605   0.4001581  66.4318715  51.9151957  -0.5468186  66.3129282
  50.9815549   0.6206881  66.0758038  43.8916354  34.1972509   6.8431530
  43.9740280  33.4019423   6.3169140  42.9491722  34.3010477   6.9743825
  70.8937856  36.1648191  33.4098818  70.3658426  36.8649693  33.0260878
  70.2731540  35.4517419  33.5601123  76.3011667  49.8683256  15.2000097
  76.0244895  49.4386903  16.0093892  77.2214720  49.6241654  15.1017457
  78.0718493  69.6989233  81.3730124  77.6899999  68.8214455  81.3516656
  78.4128926  69.7901403  82.2627319  11.2532795  37.0706574  47.5561065
  11.0792941  36.1367579  47.6735489  12.0118211  37.1015130  46.9731019
  75.9389541  40.1426778  77.8639273  75.2247504  40.6514556  78.2477112
  76.6648290  40.7628525  77.7952189  28.3089507  52.7493085  34.0166677
  27.6038305  52.3224612  33.5300068  28.2302392  52.4029995  34.9055470
  86.1093141  51.0160160  20.6441533  85.8239737  51.2481507  19.7604531
  86.7876024  51.6582212  20.8532691  40.2702617  69.9824345  32.0806638
  39.9183413  69.1036074  31.9390775  39.4977765  70.5301257  32.2204236
  66.4048990  41.6182654  89.1697740  67.2074077  42.1183907  89.3183884
  66.6522787  40.9540838  88.5264249  39.1755586   0.2889470  64.9106786
  39.1034735   0.1978326  65.8608016  38.5949323  -0.3867056  64.5605378
  33.8544922  69.1319044   0.5485680  32.9952074  69.0663884   0.9651842
  34.3451646  69.7364246   1.1053693  19.3412055  61.0641114  44.9728947
  19.1777726  61.8896926  45.4288959  18.9564188  61.1893731  44.1054383
  68.8925927  38.6446892  83.4707908  68.8976212  38.2978845  82.5786400
  68.5895120  37.9142045  84.0100181  30.1697066  28.7469172  78.9461612
  30.9801327  28.2605773  79.0975381  29.5097585  28.0708053  78.7926260
  -0.1210941  47.6857539  53.0194385   0.0527577  47.4901374  52.0987096
   0.4615327  48.4174237  53.2229996   5.4915095  50.4177043   9.5965943
   5.8972590  51.0219230  10.2183008   5.9576007  49.5917765   9.7263405
  38.8305183   4.5995315  10.2293518  38.2279598   3.8794679  10.4155333
  39.6389728   4.3583060  10.6815061  35.1698286  68.5029586  20.4930360
  35.5099829  69.1700863  19.8968249  35.5813532  67.6892625  20.2018694
   2.3818044  46.8908341  81.6137621   2.7321670  47.1433933  80.7595421
   3.0825409  47.0999645  82.2313903  15.1452318  45.8318904  22.1640125
  15.4909455  46.4126146  21.4861679  15.8184423  45.1596921  22.2696958
  69.9551147  24.1125872  66.5052242  70.7649343  24.2187324  67.0043808
  70.0236985  24.7542049  65.7982201  22.6950677  49.5781915  66.5509940
  23.5467535  49.4829106  66.1246317  22.1910875  50.1350112  65.9575400
  48.3614417  11.6849704  80.3156213  47.5946910  12.2517722  80.2315918
  48.0301999  10.8054695  80.1339934  86.0737778  15.5132398  16.4568147
  85.2801845  15.9351485  16.7861086  86.7542783  16.1805189  16.5456384
  12.8386665  38.9768646  29.1386701  12.8226243  39.3582870  30.0164466
  13.7312133  38.6461750  29.0374943  41.1089173  14.7922428  76.7692399
  40.3640816  14.5988232  77.3384854  41.8642233  14.4284095  77.2311597
  69.4569144  54.4812155  46.0219123  68.7793065  54.8723519  46.5733574
  69.0454020  54.3944461  45.1620515  16.5249591  51.2950579  17.2594542
  15.7189670  50.7876978  17.3553411  16.2269574  52.1831132  17.0625161
  81.3092866  10.3353703  25.1820360  80.6434435  10.0098171  25.7877587
  81.5708231  11.1812930  25.5456915  48.5280337  45.8443923  42.3514541
  49.4850421  45.8252503  42.3519795  48.2952500  46.1591877  41.4779855
  43.4166291  70.7288747  28.5174713  44.1151397  70.5469662  29.1461397
  43.3022224  69.9061224  28.0418438  50.6989577  39.8808585  28.5673828
  51.1108173  40.1636999  27.7509244  51.4256953  39.5693397  29.1068642
  83.4532489  23.9299997  15.3459049  84.3473071  23.5951373  15.4148904
  83.1275756  23.5747415  14.5188860  22.9961507  28.7192349  21.4842585
  22.4899972  29.4706921  21.1754663  22.4692016  27.9585849  21.2393746
  14.7403494  23.2694840  17.4304266  14.3363144  22.7049337  18.0894187
  15.6514663  23.3521506  17.7119655  43.2647816  46.8398373   6.6644198
  43.3115579  46.0167403   6.1780504  42.3521907  47.1161541   6.5804042
  59.2045576  47.8053718  11.1952339  59.0315848  48.3602654  10.4347042
  58.3371264  47.5988758  11.5433061  66.3890555  62.0117954  62.7084826
  66.0229849  62.6700907  62.1178292  65.9806645  61.1905909  62.4344902
  78.1824795  20.3162905  47.6692675  77.7431017  19.9706125  46.8922953
  77.6589528  19.9949463  48.4033585  41.4604316  56.8232097  20.2598287
  40.7269096  56.4562652  20.7533152  41.3654377  56.4559809  19.3809936
  78.6184512  54.6386533  64.8501420  79.5141627  54.3011328  64.8536888
  78.7164524  55.5762337  64.6840982  49.2068090  55.7330328  20.2098697
  49.4099798  56.6290305  19.9412776  50.0571338  55.3477516  20.4213831
  77.2211259  42.8553398  24.6976855  76.3227907  42.8499741  24.3672360
  77.2342764  42.1710133  25.3668314  65.9346690  15.6545461  59.2686492
  65.8552670  14.9875441  59.9505842  65.0314036  15.8551301  59.0234766
  11.5289965  42.1373009  29.2922847  11.0580849  42.3232679  28.4799483
  11.9946983  41.3195328  29.1173306  70.3615337  39.4669099  88.0894769
  70.5094479  39.9308723  88.9135473  69.7564320  40.0277339  87.6041315
  70.8467917  46.3996886  71.8807904  71.4744965  46.0030748  71.2767076
  70.8350261  45.8103887  72.6349913  75.0066252  58.7714333  80.9939170
  74.9713096  59.5290961  81.5778106  74.5738203  59.0661731  80.1926429
  20.8920544  39.0457130  53.8462274  20.9045700  39.8454826  53.3204483
  20.0390088  39.0577547  54.2802781  78.4263962  28.7003675   8.5994951
  78.8906034  29.5242632   8.7476146  77.9503771  28.5436909   9.4150256
  49.6742600   9.8621153   2.3677950  50.1503511  10.3528893   1.6979368
  50.3481911   9.3477568   2.8121867  68.7514505  30.6378097  15.7693570
  67.8564741  30.4245545  15.5052145  69.2787952  29.9113923  15.4370060
  73.3463409  62.7799690  85.2215428  73.2170274  62.4152828  86.0970505
  72.4830586  62.7294821  84.8111448   3.1524946  46.8193524  22.0190285
   3.6407953  46.0721260  22.3646395   2.2436045  46.6454220  22.2637710
   9.4011871  40.6244312  35.1377377   9.7225376  41.0123984  34.3238291
   8.6870803  41.1999142  35.4117864  64.0216661  46.6629039  48.1036293
  64.8848991  46.2526141  48.1558111  63.6596936  46.3544548  47.2729267
  82.9435952  12.9386839  70.6186216  82.6995315  12.0698688  70.9377220
  83.2673951  12.7855782  69.7309594  65.7826618   1.9874530  68.1938207
  66.3661741   2.7454479  68.1593370  65.1077066   2.2333633  68.8264306
  45.4479129  28.3067879  79.3702441  44.9166356  27.5859055  79.0321540
  45.2970450  29.0244909  78.7551236  51.9770129  31.6027742  40.4360767
  51.0677763  31.8444171  40.2596419  52.4651319  31.9433024  39.6864020
  25.9330722  34.1831284  12.7161206  26.1998508  33.2640238  12.7336634
  25.8249595  34.3834410  11.7863796   3.6262490  26.4750007  63.3244212
   3.8167204  25.9949818  62.5184842   2.6783906  26.6071481  63.3061659
  66.9522912   8.1336568  67.5563279  67.6770474   8.6618523  67.2217089
  67.2767225   7.7787915  68.3840034  68.2813574  18.5263949  70.4210298
  67.3730528  18.7793036  70.5861111  68.4487114  18.8080058  69.5216301
  71.6270050  32.1611640  22.4337530  70.9412797  31.5945497  22.0802550
  71.2099133  32.6128343  23.1674153  29.9322812  62.3176677  72.3495377
  30.4265971  62.0005450  71.5936826  30.2764921  63.1964382  72.5092659
  73.4001531  45.9240639  58.8405600  73.1618372  46.4336919  59.6149738
  74.2715830  45.5810129  59.0384429  86.6609911  10.6775734  59.2932287
  86.6708504   9.9050636  59.8583510  86.7133665  11.4175427  59.8981535
  79.1388986  35.8127272  21.5054268  79.2757276  36.3713400  22.2705813
  79.1390311  36.4179985  20.7638889  32.5293534  65.0911023  87.8272394
  31.8892584  65.8026930  87.8394354  32.3400111  64.6124347  87.0202334
   6.9949088  37.8410810  44.3690394   6.9471042  37.2564395  45.1254393
   7.0100502  38.7205220  44.7466452   3.2507951   8.9256265  43.0334881
   4.1877010   8.8665226  42.8465501   3.0280546   8.0753023  43.4123908
  33.7702827  28.9617169   7.8811008  34.2076338  29.2937869   7.0970821
  32.9667849  29.4781125   7.9440196  45.8931764  29.4595579  84.1266906
  46.6541400  28.9867131  83.7896683  45.1860918  29.2385035  83.5205568
  53.9337680  34.5901349  45.5640276  54.4893076  34.9285897  46.2662070
  53.0463032  34.6299402  45.9204734  78.7697966   1.8600768  72.1474559
  79.0292488   1.6562473  71.2489183  78.2521833   1.1041124  72.4246314
  36.4973759  52.6147962  13.2139998  35.9045448  53.0792978  12.6232196
  36.2756810  51.6908658  13.0980872  14.8072414  16.0317775  83.0121580
  13.9070494  16.3570528  83.0212185  15.3472121  16.8195272  83.0762971
  53.2995901  61.4330636  17.8968320  53.2512186  60.5033784  17.6741721
  53.7424864  61.4534453  18.7451594  22.4953927  39.0920752  42.6248876
  22.8954726  38.6383509  43.3667111  21.7932621  38.5084102  42.3375209
  12.3570485  63.3491865  25.6359381  13.1562060  63.8637869  25.5229530
  12.0823202  63.1345901  24.7444761  67.1096153  23.5486404  19.7250743
  66.2637951  23.8493314  19.3928018  67.7472719  23.8827316  19.0941948
  51.9043417  16.0352740  27.0553523  51.8072295  15.0841441  27.1017524
  52.4528906  16.2570134  27.8077868  66.4239625  36.8958860   9.3572110
  66.9640548  36.1133889   9.4678025  66.6864500  37.2499577   8.5075255
  13.2077392  47.1316477  75.0739463  13.4213657  47.6097358  75.8752124
  14.0234470  47.1270061  74.5731159  25.4960553  60.4508943  19.8067949
  24.6467908  60.6362013  19.4059921  25.3019443  59.8165090  20.4968007
  76.0845322   9.5040982  62.2367937  75.2100003   9.6814303  62.5831736
  76.1558130  10.0676544  61.4663682  86.3296017  59.4645898  29.8628221
  86.9955375  59.2348761  29.2147534  85.8843134  58.6386114  30.0517925
  17.4048814  21.9150992  62.6836018  17.6021373  22.6646449  62.1219051
  16.5517705  22.1203730  63.0660887  59.7371468  66.0016420  79.4869831
  60.3502641  66.5892059  79.9286705  60.1031339  65.1276271  79.6225678
  21.0278548   3.6615764  81.6346402  20.5746477   3.7319240  80.7944698
  21.8057240   3.1373482  81.4440200  38.1151042  59.8968760  12.1725650
  39.0360951  59.6412885  12.2243592  37.6351401  59.0690264  12.1956154
  22.0291513  68.1214051  69.2734644  21.8402810  68.4594767  70.1488315
  21.2830625  67.5579852  69.0681809  83.5273112   3.3256133   2.4191698
  84.2765720   3.2656955   3.0118332  83.7095275   2.6796821   1.7366729
  62.3378328  45.0406005  84.6628882  62.9786070  44.4628775  84.2483084
  62.8578634  45.7658957  85.0089329  39.0020368  59.0974041  86.2116510
  39.3562900  58.2092503  86.2554609  38.5999492  59.2374447  87.0689409
  50.7862565  47.8183228  40.5585784  51.3969529  47.0832733  40.6132038
  49.9782107  47.4336416  40.2189990  17.7618923  56.1898378   4.3555298
  18.5956730  56.4350958   3.9544187  17.5958274  55.3018945   4.0389686
  63.9547197  69.2918423  39.2756948  64.7007298  69.8432916  39.0398889
  63.7480407  68.8125879  38.4733041   5.5859198  55.1262643   5.8303976
   4.6430801  55.0646065   5.6771546   5.9219098  54.2578294   5.6086694
  63.0688357  29.0337297  49.2335892  63.0774278  28.1778548  49.6621170
  63.1677150  29.6611382  49.9496990  53.6692117  58.7185004  71.6211561
  54.2603413  59.3797937  71.9810018  53.2520063  58.3271347  72.3886223
  57.2232811  18.2113526  44.6146172  57.0737189  17.7826907  43.7719358
  56.3510841  18.4762698  44.9067185  47.9897859  64.6102380  72.9291995
  48.1967412  63.9175470  73.5565595  47.1347656  64.3653119  72.5753870
  21.4840139  15.6572716  71.2831220  21.2661345  14.9848709  71.9285968
  21.1055349  16.4616238  71.6380909  83.0120526  40.1767162  65.4692342
  82.1837925  39.7791703  65.7378869  83.1900006  39.8002290  64.6073619
   3.5698215  14.0741357   4.8060460   3.0615809  14.0047405   3.9978952
   4.4607745  14.2653369   4.5129988  33.2927656   8.9896128  74.8853238
  33.3756423   9.6883661  74.2363961  32.3572366   8.9582968  75.0854153
  55.6184573  29.2953475  77.2232942  54.9177595  29.3955859  77.8676595
  55.8522153  28.3681093  77.2659377  15.0943871  38.5904940  85.2066182
  14.6293483  38.3325509  84.4107312  14.7469480  38.0117321  85.8852584
   4.4247501  58.0427358  10.4932230   4.6151462  57.1243711  10.3019442
   3.6474509  58.2400709   9.9706365  55.7264110  40.8185126  53.1419474
  55.5398491  41.5754134  52.5864948  55.2301646  40.9818869  53.9439949
  35.1584923  33.0756742   5.8972964  36.0926501  33.2027635   5.7316781
  35.1111686  32.8201167   6.8185361  64.8547703  23.3049858   7.4197933
  65.7932297  23.2278529   7.2478157  64.7536402  24.1722436   7.8120541
  41.8188700  44.6032206  64.1330183  42.7568423  44.7831721  64.1967144
  41.7620550  43.6503154  64.0624804  23.6756764  34.3136379   3.2590505
  23.0951376  33.9449143   2.5932806  23.0852731  34.6319259   3.9419476
  74.9550012  51.7171572  34.8604707  74.6744789  51.2156224  35.6259783
  75.3893272  52.4881915  35.2252980  77.5440441  69.8819163  57.4413115
  77.9069455  70.0371631  56.5692835  77.0574814  70.6809252  57.6439770
   4.4023796  42.7117477  33.1575837   4.8693436  43.4959652  32.8691755
   4.9546393  41.9847707  32.8699288  14.5479514  53.3076433  43.6857248
  15.0018091  53.1565390  44.5148282  15.1589484  52.9961551  43.0179751
  63.9217887   3.8517127  13.9037932  64.1969329   4.7498070  14.0880598
  64.4093848   3.3182800  14.5314326  66.3495104  71.2908803  58.4211985
  66.1735373  71.9193833  59.1213765  66.6357220  70.4990311  58.8764891
  39.9152830  48.9230419  83.3105994  39.9686324  48.9567393  84.2657173
  39.5172935  49.7577290  83.0633473  40.8005669   2.2116804  55.7361195
  40.9541071   2.2726984  54.7932865  39.8611956   2.0458469  55.8155722
  26.6066314  11.5849669  11.5520093  26.2022928  12.0060431  10.7934336
  27.2135290  10.9470088  11.1766209  61.1811339  47.0671359  38.7745880
  60.9182283  46.4924047  39.4934736  62.1377529  47.0699946  38.8078100
  76.9919684  38.9659227  67.6978156  77.7004974  38.4829235  68.1231747
  76.1922030  38.6004262  68.0759946  65.8786262  36.7998996   0.5720726
  66.5153284  36.6041067   1.2594643  65.6376625  37.7140402   0.7221235
  26.0324223  32.9713620  67.5560317  26.4155289  33.4750546  68.2741926
  25.9474142  32.0839310  67.9045594  73.6608078  51.5696616  48.1186223
  73.4939588  52.4793073  48.3654786  73.0061070  51.0662256  48.6025136
   5.4538920  61.5110449  47.9077901   5.7975945  60.6815301  47.5761192
   6.1133329  62.1594071  47.6608164  83.4910593  28.5400682  72.4721381
  83.2184794  28.4564703  73.3858905  84.2293427  27.9369099  72.3862918
  71.7437981  65.9781956  24.3116877  71.7158259  65.6447824  25.2085071
  71.6826965  65.1960056  23.7633473  61.6849418  17.3209307  35.3447925
  62.5815740  17.5219374  35.0766903  61.7679691  17.0144062  36.2477770
  58.5029246  32.9072766  86.3830815  58.9097991  33.4122951  85.6790635
  57.6678513  33.3473773  86.5418128  78.5406995  32.7862190  65.6446098
  78.6039717  33.7118255  65.8801540  79.1860974  32.6719340  64.9470194
  77.1689982  29.0579398  15.9587169  77.6597714  29.5697230  15.3157150
  77.8277371  28.5031943  16.3765115  39.1828989  26.8374974  82.7581393
  38.2541641  26.9823384  82.5772950  39.2578885  25.8914495  82.8830460
  47.1305974  52.0758586   7.0355576  46.8524359  51.7882600   7.9051237
  47.5529694  51.3069265   6.6527037  83.3816081  62.9036822  87.8150022
  82.8685346  63.2165515  88.5600526  84.1096023  63.5216740  87.7491050
  65.9181007  49.5829285   1.1255552  66.1284326  49.9285532   1.9930435
  65.4705895  50.3038405   0.6825524  78.7522825  17.1715430  31.9189085
  79.1084801  16.4726867  31.3703148  79.4971222  17.4691876  32.4412622
  50.1694035  43.6446992  63.2874876  50.0749227  43.3602508  64.1965499
  50.3979615  44.5721572  63.3492519  38.2290839  16.0548594   8.3341079
  37.6176425  16.2353859   7.6201181  37.6893319  15.6559249   9.0165673
  31.3894619  67.6188117  10.0402675  31.0127426  66.7660456   9.8232319
  30.6317956  68.1837449  10.1920044  45.3599992  66.7920097  86.3464747
  45.6929378  66.6478133  87.2322462  45.9502850  66.2904534  85.7841263
  76.6194320  70.4162909  47.9487119  77.4983865  70.0431934  48.0155629
  76.3826018  70.3078024  47.0276400  64.9767110  24.9280933   2.7020901
  65.5525642  24.1663742   2.6356907  64.1619505  24.5814227   3.0657061
   0.1459273  69.8744733  65.9183645   0.1485853  69.4810497  66.7909713
   0.0163052  69.1361371  65.3231423  76.8881481  45.1801959  12.4419023
  77.6755335  44.6381233  12.4910278  77.2135058  46.0794604  12.4831048
  43.3560793  58.2644303  13.2872377  44.0213769  58.6775292  12.7368195
  43.3421389  57.3510186  13.0013764  66.5595226  55.9469736  85.5293877
  66.3142143  56.4673852  84.7643861  67.1231719  56.5261363  86.0423222
  57.4362442  51.7956110  78.2894617  56.4805780  51.8497777  78.2894459
  57.6429438  51.2097102  77.5612946  26.5027855   0.8738315  88.8100740
  26.2200475   1.1039785  89.6951296  25.9719697   0.1113258  88.5797449
  59.5695778  58.4154004  31.9226271  60.4949850  58.4037440  32.1669984
  59.1015661  58.3211640  32.7522755  54.1250922  60.4005920  62.5349887
  54.8050384  60.3411072  61.8638952  54.3274108  59.6908173  63.1445122
  39.8917863  70.5904206  42.4932625  39.5315774  70.9892363  41.7011593
  39.1961955  70.0133243  42.8084532  16.4046763  71.2133994  27.5875434
  15.4844200  71.0102693  27.4199176  16.4743367  72.1552216  27.4314978
  42.1130420  65.0189035  34.3161974  42.1244047  65.3791548  35.2029452
  41.9342357  64.0865685  34.4387192  69.1128363  41.1141994  66.3625558
  69.3251095  41.2471666  65.4387096  69.2883788  41.9609672  66.7729227
  78.8742967   0.3367761  10.2507296  79.2666036  -0.5325692  10.1696997
  78.8801327   0.5154777  11.1910824  77.2871662   3.0304934  29.5969793
  76.9705059   2.7903187  28.7261899  78.2257015   3.1767056  29.4786353
  29.8268658  13.4337742   9.4889944  29.7755726  13.8267420  10.3603021
  29.9172609  12.4953247   9.6544427  77.6228360  45.6431133   2.0626969
  76.8789430  45.6147677   1.4609897  77.2451769  45.4460994   2.9198964
  57.6296338  67.9672369  68.7256669  57.4733312  68.5727832  68.0010187
  58.4117137  68.3090372  69.1589744  29.2501000  64.1032269  19.9005982
  29.9253705  64.7602716  19.7316785  29.6982611  63.2648859  19.7884922
  35.3965773  57.3433894   9.8335199  35.9406749  57.7473184   9.1574792
  34.6014829  57.0755876   9.3727174  68.5833206  33.2076585  36.8744938
  68.5224840  33.1282660  37.8264537  68.9491128  32.3710411  36.5872672
  83.1927820  55.1731249  80.4870344  82.3747604  54.7525258  80.2221405
  83.1837749  56.0184671  80.0380941  56.7244946  42.1262339   1.9044895
  56.1861715  42.8326841   1.5476026  56.1386877  41.6543558   2.4964296
  12.9793469  63.3872037  31.1681433  13.8213405  63.7650647  31.4221110
  12.3485072  63.7812178  31.7706597  40.3386474  62.4110839  40.5026258
  39.6544587  63.0492276  40.7048396  41.1455754  62.8163314  40.8202316
  37.3484746   4.5315416  71.8012516  37.1448701   5.0772763  71.0416789
  37.5993828   5.1544404  72.4833616  22.3606117  45.0621201  28.3928475
  22.3569537  44.1107150  28.4979507  21.4443700  45.2890670  28.2340143
  59.2904305  27.0714098  39.0193579  60.0473740  27.4118487  39.4961910
  58.5346849  27.3686539  39.5260396  32.2041462   7.5996993  13.5556911
  33.0928296   7.7638714  13.2402212  32.2891011   7.5748166  14.5087888
  19.1301596  16.2260302  63.8309373  19.8567548  16.5931457  64.3344426
  19.1597655  15.2875800  64.0171270  67.3155067  67.5821871  20.2731912
  67.4216213  67.1301573  19.4361484  66.3926294  67.4601588  20.4959878
   3.5117947  17.9607402  42.3088082   2.9082684  17.7027802  43.0055466
   3.2794633  18.8688044  42.1147116   3.8671497  58.0428557   6.9871971
   3.2099678  57.3839551   7.2112368   3.7872482  58.7042085   7.6745544
  79.8706876  10.4471448  10.0760460  80.7039605  10.4902937  10.5451156
  79.5826474  11.3579474  10.0151920  23.6461476  61.3293333  11.3614024
  23.5192284  62.2736226  11.2695275  23.5384368  61.1631864  12.2978988
  51.9022882  43.2582328  13.7902673  51.4278111  44.0734777  13.6275438
  52.2228737  42.9916200  12.9286558  26.5890414  29.3196311   1.3117679
  26.4302056  30.0571911   0.7226939  26.5340522  29.6978595   2.1893505
  71.7976577  45.0922713  27.4201228  71.4799650  44.7675525  28.2626553
  72.4916474  44.4806930  27.1739886  30.1844403  62.7888509   9.8279257
  29.9946085  61.8778867   9.6035600  30.6897370  62.7354270  10.6391304
  62.2945408  62.0558809  73.3335537  61.6872726  61.9549534  72.6005661
  63.0226311  62.5622429  72.9733956  58.9479939  12.6699263  85.4880454
  58.3006925  12.9901465  86.1162904  59.5922643  12.2064662  86.0231643
  18.7217721  62.6404822  67.3174969  18.3791746  63.1124016  66.5584508
  18.9290011  61.7677473  66.9833984  84.2562359   1.8810808  68.7578762
  83.7084525   2.1474088  69.4962762  84.0906440   2.5424446  68.0860063
  41.6908734  37.4054722  25.9872828  42.3186750  37.4422404  26.7089095
  41.9436446  36.6280803  25.4892864  57.8796933  57.3903843  70.3129251
  57.3110447  58.1603651  70.3130510  57.3513506  56.7023763  70.7175618
  51.0979981  10.1313194  77.9332441  50.3880044  10.7610572  77.8084604
  50.9966861   9.5101357  77.2120655  67.6073929  51.1622918  75.3675172
  67.3160312  50.9908341  76.2630296  66.7976531  51.2737953  74.8694005
  66.5044882  58.5996642   3.4837773  67.2562530  59.0018341   3.9189104
  66.2085819  59.2603236   2.8575183  73.0520898  67.0349307  28.3903342
  73.3130749  66.9145103  29.3033607  72.1888547  67.4455114  28.4401391
  25.1771384  62.3868310  41.8612168  25.7306881  63.1288988  41.6180091
  24.3168333  62.6014397  41.5005921  23.2648932  65.5554302  55.0408848
  23.7989694  64.7830829  54.8552128  22.7741038  65.3233665  55.8292400
   5.0981681  70.8695295   4.2897984   5.3809844  71.6671800   3.8425844
   4.9177490  70.2497880   3.5829735  82.5745769  66.2188863  82.4774924
  83.1342365  65.4724178  82.2634881  82.3677727  66.1050218  83.4051231
  57.9419692  61.0023595  44.0214795  57.3965043  61.0046733  44.8080509
  58.0498512  60.0756300  43.8075503  52.2671799   2.7014126  19.1302255
  52.6982540   3.2337711  18.4616439  51.6040980   2.2050948  18.6504101
  85.5877308  18.8345796  85.1004373  85.2607449  18.5991381  84.2321750
  85.7357461  19.7790572  85.0526320  67.5753256  63.3733777  45.6029622
  66.6688578  63.3790422  45.2955279  68.0528766  62.8860217  44.9316493
  19.6651183  67.8064113  14.4246459  19.2065113  67.0853720  13.9933526
  19.5622505  67.6303821  15.3598805  38.9736863  54.4227572  10.6418544
  38.8601186  54.6970838  11.5518429  39.6780169  53.7753157  10.6729966
  15.4722897   4.2076889  76.7161904  15.2504968   4.3645376  77.6340348
  15.3121091   5.0467692  76.2843130  30.9897202  56.1232429  75.0829847
  30.1327714  56.0486628  74.6630938  31.3935334  56.8861740  74.6693390
  28.1169283  46.8774453  58.2533270  28.4201331  46.4022334  57.4797171
  27.3830288  47.4049035  57.9380316  13.4519248  69.5969124  45.8610165
  12.7602949  68.9444188  45.7508707  13.6988482  69.8372874  44.9679988
  85.2980188  10.2118228  42.1602261  86.0869285  10.4985207  42.6202889
  85.2589844  10.7680566  41.3822081  54.2628985  27.3906930  32.1239064
  54.7681246  26.9405111  31.4469169  54.8920910  27.9795784  32.5405149
  82.3615816  34.4237616  53.9346166  82.3419899  33.4676575  53.8932271
  83.0810212  34.6228681  54.5337786  59.7869198  17.6442329  40.0241713
  60.0827830  16.7387187  39.9306783  60.5894383  18.1641303  39.9805518
  78.8586248  61.5312737   6.9695429  78.3184548  60.7863945   6.7057186
  79.3058594  61.2340781   7.7619366  59.6398566   7.8016320  26.9560204
  59.3488238   7.1876865  26.2817780  60.3435038   8.2991099  26.5393332
  43.7131202  70.2316428  54.7385935  43.8533169  69.5539591  54.0772906
  44.1915758  69.9194665  55.5066157  71.9349275  37.5189141  63.9656003
  71.8167781  37.7442082  64.8883761  72.8686764  37.6536950  63.8038013
  65.0001754  31.8464536  12.4545666  65.6340845  32.0140906  11.7572224
  64.4430383  32.6247476  12.4639698  33.2024075  22.3340191  17.0737724
  32.3983699  22.5581542  17.5423007  33.7663895  21.9414070  17.7401146
  80.3813829  66.3915071  80.8105948  81.2871057  66.1317950  80.9792593
  80.1309920  66.9013810  81.5810264  70.5268404  68.5618231  28.0922439
  70.2765269  68.8822261  28.9587986  69.7596630  68.0791320  27.7845428
  54.1644640  35.0235169  30.7278303  53.7283004  35.6028676  30.1030537
  54.8842997  34.6342582  30.2312963   5.2975588  67.9907567   8.3990592
   4.9166503  68.3949268   7.6194522   5.3595256  67.0608437   8.1807619
   0.4559771  12.4564555   3.7970231   0.2002690  12.5743129   4.7118754
   0.2093539  13.2777347   3.3716888  78.2157268   2.7650373  36.7438342
  77.4851908   2.1543963  36.6455155  78.3332313   3.1404090  35.8711826
  77.5131395  67.5371417  70.6506187  76.8281179  67.3783052  70.0011973
  77.7922059  68.4383558  70.4888570   0.8121633  59.6474061  81.5557023
   1.2655329  59.9695172  80.7766437   1.4701728  59.1285909  82.0183967
  77.1918183  54.1883844  83.7751982  77.3200573  54.5364012  82.8927749
  76.8827921  53.2930453  83.6369861  85.9713808   4.3610786  80.0862402
  85.3022914   4.4783279  79.4118487  86.0768715   5.2304296  80.4726757
  60.8925230  25.6340652  64.8385862  60.2611678  25.4021527  65.5196435
  61.6645196  25.1041436  65.0371716   4.2582749  63.4161738   1.7658194
   4.9186882  62.8939040   1.3104948   4.6730202  63.6575231   2.5940516
  10.4315858  62.3541941  74.3976466   9.8054706  63.0466737  74.1862617
   9.9191532  61.5468285  74.3551570  67.4051486  40.6139277   4.5014438
  67.8212619  39.9197008   3.9904345  67.1662945  41.2774341   3.8541881
  11.4432811  39.3827000  51.9736468  11.7316880  40.0475259  51.3482990
  12.1210732  39.3795749  52.6495313  64.8120615  62.4948080  34.5600859
  65.4866642  62.4296870  35.2360313  64.9710675  63.3419738  34.1438418
   2.0682154  65.6468981   3.4541843   1.4740521  66.3919403   3.5442610
   2.5410442  65.8148119   2.6390342  71.2236597  61.3745233  38.8675538
  71.7269552  61.0061654  38.1414422  70.3280181  61.0729856  38.7154587
  57.5360157  55.7619580  85.3143353  57.1803787  55.9597401  86.1807281
  58.3242313  55.2482456  85.4905384  24.9412554  59.6926629  42.7709490
  24.1876611  59.7361354  43.3595385  24.9625565  60.5498041  42.3454056
  22.3297509  53.4622255   9.0847612  21.7875788  52.6992137   8.8845258
  22.0717383  54.1164387   8.4354027  66.4941138   3.0426256  49.3466031
  67.1438963   3.3011531  48.6930145  66.3256172   2.1181960  49.1642010
  81.9054055  60.9937692  70.5107704  82.2667032  61.7944012  70.1303967
  82.3661992  60.8953221  71.3439626  24.3986511  55.3886185  15.9550945
  25.1303289  56.0008664  15.8774291  23.6753523  55.8209556  15.5010513
  14.6731397  15.3838970   7.0657686  15.1963579  16.1736762   7.2026017
  15.1053764  14.9329187   6.3404949  60.5780325  60.4642952  44.3578338
  59.6344567  60.5630026  44.2307382  60.7279128  59.5198527  44.3154540
  11.6730724   8.4574612  81.1283921  12.3676460   8.0468396  81.6433575
  10.8678865   8.0435417  81.4391625  12.2752911   0.2605473  64.4036838
  12.8547681  -0.1412845  65.0509623  12.6761900   0.0505621  63.5602277
  54.5993843  41.9490715  55.6178256  53.9789282  42.2780252  54.9673984
  54.5910582  42.6083930  56.3116970  25.8089931  64.3996300  48.6970411
  25.8155513  63.5501017  48.2560304  26.5873731  64.8475001  48.3657273
  15.6858949  36.9771939  21.0676853  16.3816314  36.3202060  21.0442469
  15.9034282  37.5818246  20.3582257  79.4685019  46.9113729  62.0924622
  80.0489512  46.7525756  61.3480874  79.4689854  46.0858359  62.5769417
   4.7464303  30.9038491  72.7613928   3.9262484  30.6675879  72.3281328
   4.6240805  31.8159246  73.0247950  55.6752614  29.9558645  54.6018240
  54.7673464  29.9661616  54.2988123  55.8250955  30.8389066  54.9394899
  80.9917680  50.2020743  39.8153494  81.3166844  49.5355175  40.4206289
  80.2437900  49.7893476  39.3835886  32.5380902  39.5899319  55.4462523
  32.0312518  39.0466381  56.0497243  32.6556127  40.4184631  55.9109635
  37.6898835  31.1034246  76.5079585  38.4630928  31.5830500  76.8051768
  36.9563834  31.6862152  76.7043368  18.4878338  41.5150827  72.3699098
  18.4532322  42.3682929  72.8024220  19.4198909  41.2991428  72.3403897
   9.0843882  63.9949178  77.7877019   9.0042778  64.9236181  78.0052565
   8.4774989  63.5560663  78.3837946  23.5682815  71.1626704  88.1667140
  23.6755617  71.9764775  87.6743313  22.6275373  71.1063135  88.3342134
  83.2386543  68.1316330  40.2893148  83.8983010  67.7870846  39.6873309
  82.4789269  67.5632251  40.1629876  34.0420461  53.8975910  86.6006104
  33.2864152  54.3211925  87.0078149  33.7892617  53.7864812  85.6841026
  76.8468712  20.4443877  59.4337494  76.2282797  20.5973957  60.1480078
  76.8426056  21.2608658  58.9341725  43.2090780  64.3227883  84.7054276
  43.1975608  64.1371532  85.6443838  42.3195803  64.1262458  84.4114944
  81.6196544   4.1435170  32.5196207  80.8554622   3.8340957  33.0059340
  82.3518838   3.6440709  32.8810423  53.6321845  13.7715721  41.6254095
  54.0572206  14.6210584  41.7435168  53.7443013  13.3286495  42.4665285
  21.7841824  40.9544945  32.3689191  20.8759271  41.0434928  32.6576810
  22.0464604  41.8424977  32.1262415  84.2702306  26.5196185  36.7313991
  83.9534030  26.5535137  37.6340082  84.7332245  25.6840011  36.6712978
  37.2518342  42.8400867  10.2886955  37.2378012  43.7847635  10.4423859
  36.8250479  42.4656817  11.0593486  24.8964081  69.0237933   3.5704203
  25.6444059  69.0704790   2.9749780  24.1970695  69.4911832   3.1135790
  76.0324104  55.4553450  71.6900557  75.5210805  54.9708635  72.3381693
  76.0412353  54.8879907  70.9191711  69.5261962  30.5305736  21.4471509
  69.8024631  29.6159574  21.5053376  68.5730164  30.4884330  21.3703115
  61.1961326  53.8872190   2.3617153  61.9873837  53.3956222   2.5819113
  60.9466651  54.3182056   3.1791799  69.5580951  60.7019920  29.4900624
  69.6773009  61.0121294  28.5923784  69.0538456  61.3941932  29.9176390
  18.6797716   6.5804168  68.7190198  18.6405957   7.4624597  68.3492937
  17.8273392   6.1965161  68.5135666  59.4835587  41.7711644  25.2683416
  58.5625418  41.9178735  25.4838320  59.9600620  42.3944460  25.8166996
  79.2354656  25.5654091  56.3388896  79.7517927  26.1135698  56.9297856
  78.5915452  25.1418350  56.9065016  20.0518163   5.5148713  14.6923433
  20.3239017   5.3407245  13.7913027  19.2558507   6.0393263  14.6050641
  37.6573391  39.8779276  85.1451277  37.8327327  38.9866923  85.4470691
  38.3377766  40.0484285  84.4938473  74.9001585  41.9755096  47.8261026
  74.3546084  41.5782996  47.1472572  75.7123404  41.4693088  47.8073101
  32.9557831  10.7718368  40.4125391  33.7001228  10.7210971  41.0122188
  32.4959279  11.5713148  40.6686643  60.9099913  23.9037653  32.8734612
  61.1218071  23.0793180  32.4356797  61.6863743  24.1035978  33.3964606
  64.5877855  60.4149378  22.1551169  65.3787829  60.9340368  22.0098886
  64.5484108  59.8231018  21.4038436  76.1119557  24.1432248  30.4895538
  75.9897754  23.5218755  29.7717594  76.4861855  24.9196296  30.0731652
  81.0947785  63.3886771  16.5222152  81.7485964  63.0854004  17.1521177
  81.5898603  63.5395174  15.7169991  27.5514693  68.6389292  12.6366373
  27.3339788  67.8125345  13.0679162  27.2154243  69.3130440  13.2272936
  68.1331502  45.5571158  15.6946249  67.2763212  45.7754927  16.0612136
  68.4199961  44.7930763  16.1948199  38.3173309  59.4245458   2.6727625
  37.7837245  58.7904475   2.1937892  37.9779047  59.3960298   3.5673062
  86.1343858   7.1595333  10.6486863  86.1575964   7.0426113   9.6989377
  85.2416342   6.9203361  10.8977067  34.4318251  40.7927634  52.1565593
  35.2786313  41.2387097  52.1397390  34.5946396  39.9880579  52.6486694
  28.8469508   5.4113278   7.1665108  29.3480033   4.6429923   6.8929442
  27.9319375   5.1462551   7.0731355  86.4353207  15.7326495  85.2937852
  86.7673824  15.1401761  85.9682791  87.1626916  16.3303467  85.1208067
   9.4945160  28.7712844  63.4933971   8.9527153  29.5243486  63.7291472
   9.6871623  28.8963501  62.5641620  49.7226501  43.0438067  43.4039231
  48.9561753  43.3565739  42.9233766  50.2074858  42.5195609  42.7664809
  72.2115171  46.9613707  61.1743864  72.9102710  47.5355453  61.4879120
  71.8511565  46.5669459  61.9686163  71.1258778   3.3003153  52.9649506
  71.7417003   4.0266028  53.0624238  70.5028965   3.6016358  52.3036398
   9.7507302  58.9425495  28.5985213   9.9539502  59.8594026  28.4132812
   9.3946352  58.6053454  27.7764985   2.1088537  64.3972494  50.7177340
   1.3184980  64.5289883  51.2413891   2.5624931  63.6719194  51.1470816
   6.3176763  50.3432647  55.2268453   6.1375594  49.9606521  56.0855637
   7.2424167  50.5877958  55.2627843  49.9329618  11.6419326  24.5518265
  49.3685638  11.5114758  23.7898109  49.5386710  12.3787549  25.0185809
  81.9971967  14.4285590  76.3654229  82.7949346  14.8891165  76.1051676
  81.7346636  14.8484080  77.1845902  29.6111254  62.7740782  76.2349297
  30.0065641  63.1857771  75.4665782  28.6741701  62.9475284  76.1440357
  66.0668920  71.0709120   0.5820540  66.8744914  70.5575829   0.5595096
  65.3767756  70.4409102   0.3745235  36.4797421  64.3365724  12.4853718
  36.5058233  63.3839307  12.3957866  35.5841551  64.5752039  12.2461842
  50.7250842  17.6155593   8.8128641  50.5437210  18.1716615   9.5705511
  50.4648461  18.1452352   8.0592386  76.7628356  62.8934671  19.6933917
  77.6023160  63.1649642  19.3221857  76.2032114  62.7388993  18.9323652
   6.6165518  52.8698940  80.0083834   7.0586227  53.7188576  80.0165064
   7.2551770  52.2710048  79.6214448  78.5316171  23.0612784  35.1083312
  78.6914694  23.3532887  34.2108854  77.5960386  23.2099517  35.2455210
   5.7634659  38.2142619  28.9003127   5.6974144  37.5426213  28.2215137
   6.0598561  37.7408361  29.6776497   0.8553495  68.4805638   6.6937438
   0.1157857  67.8937682   6.8516938   1.3987253  68.3973513   7.4773574
  46.6244051  31.0685129  17.5051290  45.6821185  31.2324908  17.5430619
  47.0225948  31.8962905  17.7743150  30.8579031  41.3393527  85.3028257
  30.5227662  40.7597805  84.6187123  30.1501661  41.3853976  85.9456476
  12.2839972  30.6726116  26.3423867  13.2034368  30.7153754  26.6051298
  12.0555555  31.5757070  26.1222393  16.2860983  16.5232179  61.1600899
  15.9712146  17.0043017  60.3948197  15.5923160  16.6282146  61.8111457
  51.2857089  71.3985808  84.4068658  51.7959451  71.5203254  85.2075337
  50.4422122  71.0619605  84.7092428  33.9845484  40.5108537  81.4483121
  34.6455008  41.0831734  81.8379579  34.3428399  39.6288224  81.5477092
  62.0159123   7.3311888  74.5653505  61.5942299   8.0008983  74.0269222
  61.3340909   6.6748456  74.7087556  47.8630605  63.7393745   5.0576739
  46.9763028  63.7563485   4.6976678  48.2917267  64.5047585   4.6747058
  45.1199897  30.4182690  71.9194611  45.6999154  30.8431243  71.2874674
  45.7121490  30.0055972  72.5481750  48.8726989  14.3028583  25.3415166
  48.3432805  15.0091388  25.7118082  49.0758470  13.7391700  26.0879870
   3.0563799   1.7273221  26.7660683   2.2385375   2.2067920  26.6338776
   3.0875359   1.5621104  27.7083879  66.6896783  38.2203973  38.1998272
  66.7295370  37.3241251  37.8661518  66.2517466  38.7146821  37.5069129
   3.8556617  45.5196656  59.3368576   3.9552402  45.8759085  58.4540173
   3.6951390  44.5857667  59.2015909  38.0906184  35.0481824  87.4519732
  37.9295788  35.2458479  88.3745926  38.7131239  34.3212261  87.4678862
  80.0283420  61.4735414  65.7673564  79.6722640  61.1515179  64.9392615
  79.3744140  61.2267756  66.4213568  44.4771899  54.7923155  10.3301536
  43.7419659  54.4295299   9.8361252  44.2328838  55.7042286  10.4881434
   5.4395790  35.9624540  37.6022182   4.7409483  35.3943445  37.2775665
   5.7594696  36.4177134  36.8233468  63.8147203  33.1372176  23.8155740
  62.9236662  33.4794798  23.7440826  64.3310260  33.8779274  24.1333937
  80.7766330   1.5774293   8.8095082  81.5359796   1.0161608   8.9663596
  80.1159846   1.2648357   9.4276189  46.8895983  47.5595436  23.1001113
  47.2339689  47.5528972  22.2070286  47.4921401  47.0028212  23.5933002
  12.4255435  45.7473769  82.2240994  12.2697328  45.5336913  81.3041574
  13.0265567  45.0678004  82.5293710   7.1579484  48.0623286  36.9735059
   7.0233518  48.7625995  36.3349636   7.0306065  47.2554644  36.4745208
  47.7872633  20.8964835  76.6939794  47.6273863  21.7415216  77.1141957
  48.7354856  20.8680653  76.5663136  80.7367303  67.5204765  67.8790713
  81.4272621  66.9188384  67.6008101  81.1420629  68.0486974  68.5667631
  78.2588101  43.2569351  34.7291023  79.1257207  43.1562337  35.1222398
  77.7154633  42.6094017  35.1782199  51.8701588   4.5955371  42.2614676
  52.3902540   4.5484203  41.4592751  51.8189745   3.6899435  42.5672653
  36.6185808  29.2289750  73.6227273  35.7787897  28.7704547  73.5954887
  37.2732574  28.5339147  73.5554844   2.0869556  30.8024623   7.3891603
   2.3977081  31.5094921   6.8236751   2.8727306  30.2946766   7.5915044
  14.5864502  42.2727258  74.6657680  15.1420819  41.6814337  74.1579503
  13.8137567  42.4058908  74.1167290  76.3367266   3.3391232  64.4229239
  76.7442518   3.8076007  63.6944434  75.5751323   2.9084869  64.0346478
   1.8703204  34.5856907  81.4726506   1.9935802  33.7075025  81.8329621
   2.7413311  34.9814784  81.5030542  43.0760111  38.8898794  79.5957586
  43.1201963  38.6578651  78.6681548  42.3557693  39.5178708  79.6515298
  86.6036873  32.5480482   5.7152346  85.8717890  31.9313812   5.6985475
  86.1987018  33.3954896   5.8997926  44.4128178  41.1491573  55.2661599
  43.7330528  40.8007793  55.8430344  44.9324947  40.3842046  55.0191475
  86.0041025  24.7401182  87.4433520  85.1679246  25.1150360  87.1668108
  86.3674514  25.3859279  88.0492722  55.0888059  64.2048686  68.5090397
  55.2529501  63.9935420  67.5900024  54.1912960  64.5373539  68.5217450
  36.2307546   0.6427587   0.1421911  36.6462664   1.4690735   0.3887383
  35.6738236   0.4225661   0.8889005  80.1544928  64.3518815  36.5382031
  80.0409371  65.2969056  36.6395260  80.5288992  64.2480667  35.6634036
  68.9790927  14.2438346  84.1414176  68.4465196  14.6788165  84.8072918
  68.5160665  14.4075795  83.3198179  40.9465950  32.8022188  80.0548339
  41.2808470  32.7250657  80.9484528  40.5981975  33.6923944  80.0054524
  86.2336982  11.8247528  50.9019578  86.5010018  10.9547777  51.1984776
  86.1032688  12.3231652  51.7086828  75.2404386  46.0675268  26.7697764
  74.6602707  46.8263226  26.7076000  75.8581695  46.1784796  26.0470525
  27.6622916  60.0916327  12.7328161  27.3192125  59.2459450  12.4441278
  27.1065416  60.7372148  12.2962413  84.8698523  22.0021140   0.8056697
  85.4027667  21.3578702   1.2716996  84.7239174  22.6995812   1.4447897
   2.0361863   9.6096415  39.1177370   1.1328999   9.6841846  38.8099239
   2.3563712   8.7970061  38.7261541  13.8964855  32.1267688  73.9559722
  14.6925923  32.3598520  73.4783551  14.2081479  31.8323186  74.8117744
  78.4122346  62.7621947  13.4738721  78.5074056  62.6120360  12.5333261
  77.7035473  63.4018074  13.5438003   1.7355709  27.4610892  81.3352506
   0.8394798  27.7691870  81.1998684   2.2217453  28.2442839  81.5930730
  14.0054258  50.4772290  17.5945529  13.8066229  50.5405008  18.5287402
  13.4771751  49.7407847  17.2866036  86.2104773  24.2771251  23.9071710
  85.8427739  24.8467743  23.2315041  85.4995653  24.1641259  24.5380966
  40.3556463  32.9775643  72.1018065  40.0486591  32.1526180  71.7257023
  39.5773680  33.5342995  72.1254845  47.9054980   2.0355555  51.4795303
  48.7885977   1.8310010  51.1720825  47.4627756   2.3982300  50.7122651
  24.6986325  63.0799334  34.1889968  24.4453807  62.4451661  34.8591952
  25.1887121  62.5670524  33.5463406  64.1129476  52.4007957  12.1356325
  63.1943095  52.3585492  12.4012473  64.2977125  53.3369776  12.0604179
   3.0191701  37.8888497  34.4717872   2.4148286  38.3898319  33.9240463
   3.6466379  37.5130382  33.8543071  78.7518822  31.7468579  76.7416853
  78.1901126  31.3932030  77.4313047  79.3852888  32.2941619  77.2058903
  17.4731708  47.7875247  64.1429357  18.1750811  47.6449567  63.5079333
  16.6674322  47.6725756  63.6391462  15.0417066  64.9553200  28.4073257
  15.6071205  65.7273213  28.4308398  14.3719830  65.1287067  29.0688688
  62.7063436  29.7114442  33.0572539  63.1248223  30.1029925  33.8239333
  61.8601797  30.1544112  32.9938610  40.8300974  65.7192394  22.4855822
  41.6993590  65.9984591  22.7730756  40.9219600  64.7806049  22.3220024
  56.9699112   9.7581770  14.1396150  57.4066715   9.8802145  13.2966564
  57.4904411   9.0892967  14.5844517  14.1671406  64.3427277  38.2933227
  14.4019810  65.2553224  38.4614085  14.3483291  63.8928845  39.1185764
  39.7431697  65.8743130   8.4908398  40.3817640  66.5514304   8.7143149
  38.8932296  66.2846860   8.6503009  22.2394011  53.2852690  76.3751923
  22.6271277  54.1502990  76.5079442  22.8838686  52.6760843  76.7354526
  53.0722916  12.7753350  71.4818744  52.3348505  12.6902588  72.0861710
  53.3879785  11.8797246  71.3616431   8.0242315  54.4695960  42.7709895
   7.4566148  53.6996173  42.7366984   8.7954949  54.2214825  42.2612599
  83.3794324  19.7401909  43.4402338  82.4656660  19.8695870  43.1862271
  83.5322347  18.8034765  43.3159375  63.2389324  41.0412486   2.9573516
  63.4381266  41.6063695   2.2108987  63.5759314  41.5183844   3.7156424
  36.9273872  12.3696368  12.9303463  37.0843216  11.5093294  12.5411490
  36.9294402  12.2095661  13.8740650  83.4584712  51.5932674  45.8756433
  83.7204047  52.5099482  45.9611938  82.5063906  51.6060683  45.9736767
  42.0527254  54.0627298  62.9610167  42.5735706  53.4489989  62.4430530
  42.2184747  54.9157337  62.5595901  81.2022940  31.1332337  24.6295251
  81.1119389  32.0437357  24.9106903  80.3189847  30.7715512  24.7015130
  65.1396123  69.5201894  32.9957615  64.7185191  69.6309568  32.1433280
  65.2187889  68.5722512  33.1024201  73.5326245   4.4254334  61.9266946
  73.9838613   5.2200842  62.2115582  73.9858482   4.1672846  61.1240868
  42.1945149  47.5951039  11.0830038  42.4269840  46.6719958  11.1833104
  43.0209242  48.0283888  10.8695939  14.5601618  47.5926879  28.3743575
  15.3698956  47.9626988  28.0227113  14.7922962  46.6965807  28.6179499
  81.6884078  51.8192661  82.3769885  81.3087952  51.0007915  82.0572613
  81.5721118  51.7824423  83.3263836  26.8503649  46.7924538  29.5072728
  26.4088164  46.6055661  28.6788165  27.7451365  46.4779376  29.3780623
  13.5767641  24.3789587  14.9713911  13.6465758  24.0463597  15.8662297
  14.4804417  24.4141514  14.6577671   5.5617496  49.1745347  85.3079229
   6.1417228  49.5089906  85.9920297   6.0230837  49.3614234  84.4903194
  74.2389991  69.3652478  19.1927532  74.2772374  68.4286806  19.3866900
  73.9486863  69.4095328  18.2817158  44.8412851  26.3756473  15.2215011
  44.9204296  26.7498715  16.0989544  45.5083751  25.6898011  15.1925573
  71.8453234  13.7938522  44.8944088  72.5995322  13.6524288  44.3222198
  71.6523834  14.7275961  44.8099793  36.4415208   2.8757752  15.4868720
  35.7348178   2.2544893  15.6623898  37.2255547   2.4514046  15.8353435
  10.2297247  31.8182972  87.4649241  10.6855552  32.2431727  86.7383354
  10.6948632  32.1164189  88.2465900  79.3720175  49.7689252  54.9128345
  79.2553630  49.9942630  53.9898792  79.2582970  50.5977526  55.3779630
  85.0670347  23.6489662  58.3228998  84.8297310  23.2800346  57.4721305
  85.1848636  24.5837743  58.1541339  34.0503229  20.7852804  11.3239424
  34.0009778  20.3460428  10.4749033  33.1373654  20.9348076  11.5696703
  59.0297642  46.4305842  16.8522704  58.4396602  45.8999763  16.3170467
  58.4523624  46.8890133  17.4627471  78.1019658  29.1964606  48.1991375
  78.0801730  29.9960548  47.6733942  77.1819647  29.0030760  48.3792270
  48.2485034   7.4317498  46.9378277  48.6134418   7.9594781  47.6481478
  48.5227869   6.5370038  47.1388999  54.4991389  59.7026542  59.6279084
  55.1839854  59.7017087  60.2966507  54.8504613  59.1567024  58.9245301
  28.5243232  31.5325640   9.6443960  29.3557178  31.8169100   9.2647090
  28.1605228  30.9272420   8.9982797  14.8087609  31.2533864  25.6922434
  14.5016061  30.6954267  24.9777025  15.7442854  31.0625068  25.7599974
  72.8890392  33.2209711   6.8324133  72.7664860  33.8753132   6.1446277
  73.2771335  32.4704631   6.3825774   8.1939266   2.7267978  57.5097296
   8.4626059   2.9117567  56.6098220   8.6472831   3.3859313  58.0353176
  73.4539320  12.1711099  52.2804763  72.7912006  12.0664898  51.5977806
  74.1945966  12.5817521  51.8343588  19.8547926  49.9049048  78.9786528
  20.1423754  50.5448398  78.3274914  19.6692918  49.1143394  78.4718712
  46.3120157  18.5177712  77.2293644  45.8308167  19.0107567  77.8939278
  47.0393700  19.0905232  76.9861718  34.2324334  35.5048216  62.6518623
  34.8690777  34.9897478  63.1474577  33.8027565  34.8686774  62.0800844
  35.2291184  64.1761718  79.7544374  35.3757271  64.2786845  78.8141029
  36.0987025  64.0026200  80.1149026  51.8706662  39.2326144  57.1314588
  51.9346943  38.5937602  57.8413866  50.9300128  39.3575946  57.0058286
   9.3506992   0.5015412  58.0682806   9.9945735   0.5198947  57.3602404
   8.9114762   1.3503284  58.0146600  64.2082626  49.5022894   7.5856073
  65.1165151  49.3262867   7.8312337  64.0421276  50.3900411   7.9026686
  40.0121344  37.9443160  85.7725470  39.5520328  37.1643835  86.0827786
  40.7207488  37.6031945  85.2268974  73.6824727  52.7507742  70.5686788
  74.1681649  53.3604722  70.0131580  72.7627063  52.9271942  70.3708466
  10.7564196  48.2205585   9.2506914  10.5065540  48.0572981  10.1601666
   9.9499308  48.5196146   8.8307235  43.8754970  57.6962806  10.1003989
  44.4083182  58.1324427   9.4354959  42.9791181  57.7645041   9.7716403
  26.2771274  71.2551968  76.3933740  26.5160001  70.4149597  76.0020004
  25.5009924  71.5337909  75.9073372   2.4948163  34.2612061   8.0741228
   2.6981673  33.9188999   7.2036593   1.9869391  33.5659079   8.4922772
   9.7535107  36.6230310  80.7343327  10.3889630  37.3278532  80.6092019
   9.7810870  36.4396101  81.6733898  68.4336471  58.4710340  41.0752925
  67.9989219  57.9351116  41.7386423  68.9180029  59.1267967  41.5768965
  24.6217162  66.6004059  73.5860154  25.4973638  66.7672691  73.2372607
  24.3535757  67.4353720  73.9696351  46.5559875  33.3091216  71.9629221
  47.1774877  32.9001979  72.5652101  46.6232300  32.7908345  71.1609940
  33.5800149  68.1151063  73.0437864  34.1045322  68.8996464  73.2038182
  33.3777491  68.1488298  72.1088088  31.6950562   7.1256322  82.0049185
  32.2783974   7.8119652  82.3287886  32.2810448   6.4104932  81.7570771
  17.1996961  68.9256170  25.7734223  16.7376691  69.5709965  26.3084440
  16.8056260  69.0081776  24.9050190  81.8226261  11.6729876  22.8649566
  81.1195887  12.3214647  22.8269075  81.5918496  11.1127357  23.6059639
  60.2527325  16.1299176  73.5690291  60.0202067  16.5087849  72.7213126
  60.9277188  16.7136759  73.9152248  11.9831582  56.0981728  66.3024962
  12.6098692  55.4393720  66.6015726  11.9205720  55.9577336  65.3577255
   3.7405711  35.3864400  72.5288784   3.2393944  35.4836586  71.7191857
   3.1364714  35.6606759  73.2188712  13.1255305  60.6714428  20.7445933
  13.7391609  60.2244754  20.1615756  13.0966431  60.1225353  21.5282373
  26.5269030  64.7117253  82.2284954  27.0052007  64.2427063  82.9122237
  27.0962610  64.6618167  81.4606592  62.9918410  48.2494885  34.9606077
  63.3422948  48.0545510  34.0914625  62.5250011  47.4534159  35.2146956
  84.9295921  18.8625365  39.9431149  84.2931061  18.5670823  40.5941327
  85.7606802  18.4861270  40.2326669  57.2435799  58.2654658  52.1678143
  57.7925986  57.4813862  52.1623912  57.5103690  58.7500712  51.3866529
  57.4339477  23.7816803  76.1206090  58.2625645  24.2501082  76.0196070
  57.2438588  23.4401127  75.2468644  33.1565570  36.7569699  86.9812920
  32.4399917  37.1957622  86.5227864  33.0740070  35.8370530  86.7299552
  60.6189631  38.2798729  83.9220215  61.0965847  37.6305277  84.4382193
  60.6556177  37.9470461  83.0252971  50.3359750  14.6626223  79.4182812
  50.3643698  14.7544276  80.3706453  49.7293193  15.3445601  79.1299038
  38.5738879  42.8048976  50.8871068  38.1970166  43.2460299  50.1257907
  39.4632125  42.5771658  50.6160497  21.9255768  44.3818857  36.7323990
  22.4569480  44.5523794  37.5100933  21.0928001  44.0597082  37.0772417
  53.8960332  20.3247345  83.7348149  54.8449774  20.2099227  83.6842670
  53.5680462  19.9755315  82.9061330  78.6947600  58.5583223  73.2465610
  77.8562150  58.6157073  73.7045797  79.1362548  59.3826451  73.4510263
  84.8675898  69.8782458   7.1264001  85.5931408  69.4945266   7.6189113
  85.1167671  70.7948205   7.0079377  85.0068448  21.6739357  12.3389733
  84.6856650  21.0102028  11.7286175  84.2701211  22.2751713  12.4484530
   0.6476887  35.1118234  84.2199982   0.7229493  34.9715512  83.2761278
   1.4663253  34.7695395  84.5790354  43.3138216  26.2521848  88.0309285
  43.9475063  25.9323683  88.6731068  42.4801526  25.8712880  88.3068730
  83.0568706  56.7805027  38.0433971  82.1991698  56.7051053  37.6251910
  83.6488795  56.3009894  37.4638936  47.6235595  51.4528818  47.6117126
  47.9959331  50.6506373  47.2456887  47.5483497  51.2759255  48.5494022
  56.7570421  33.7365924  11.7090814  55.8248320  33.5262638  11.6545107
  56.9378704  33.7815451  12.6479703  43.5417436  55.6935433  78.2310997
  42.6322312  55.4486147  78.4014784  44.0278889  54.8718164  78.2993596
  28.8494609  63.8991672  87.0070520  28.7829950  64.8219840  86.7616475
  29.7017121  63.6225665  86.6703151  28.4149658  56.8539018  52.6164069
  28.8716949  56.0155794  52.5467948  28.8016124  57.3951818  51.9281103
  17.6377625  49.0495986  13.2915229  17.0963773  48.3417876  13.6410045
  17.0174126  49.6306181  12.8512795  71.8163477  26.3165964  23.6938726
  71.5444908  26.1723914  24.6002559  72.4501738  27.0320652  23.7448704
  39.7837010  38.1371907   1.9145817  40.3700385  38.4864489   1.2434194
  39.5816446  38.8893485   2.4710561  82.1338322  32.3795132  19.3704696
  82.7776987  32.4347628  20.0765965  81.7747307  31.4951492  19.4424306
  19.6317879  49.3918376  65.7500706  18.8824920  49.1715231  65.1966728
  20.1644902  49.9760570  65.2104895  83.1811855  62.1923555  17.9057582
  83.0481053  61.2971831  17.5940086  84.1234048  62.3380162  17.8206850
  83.8176075  57.5322522  21.9871431  84.6977741  57.2609061  21.7265481
  83.6284901  58.2922471  21.4368031  77.9429316  67.4574853  20.5242169
  77.8761328  68.3408382  20.1616463  77.0355593  67.1662459  20.6141438
  69.4337223  25.8036091  75.7101994  70.3152496  26.1722618  75.6533083
  68.9035074  26.3618011  75.1414063   3.4185327  37.2613984  43.6162344
   3.0413383  37.9303364  43.0448518   4.0577677  37.7342991  44.1491279
  36.9863584  34.4208087  73.1627185  37.4869571  35.1768464  72.8560592
  36.5801713  34.0657993  72.3720150  82.0020582  53.9771042  13.8161599
  82.1746969  53.0742003  13.5493409  81.1564569  54.1865487  13.4195200
   3.6691172  54.8267393  30.5702911   4.0300348  55.7122876  30.5281649
   3.3333264  54.7471770  31.4631216  19.4028670  64.2945191  52.5554425
  19.0147203  63.9699504  51.7428976  20.0241975  63.6134042  52.8128582
   2.2965879  59.6959343  35.7526199   2.2459024  59.5522702  34.8076208
   2.7468818  60.5357113  35.8434047  43.0560192  56.3110211   3.9990212
  43.9895814  56.2929851   3.7883838  42.6700319  56.8745674   3.3284533
  49.3211502  16.7647163  60.6775231  48.9213225  16.4640246  61.4935832
  48.8550508  16.2862462  59.9919215   4.2586725  55.7236787  82.4820663
   3.7256146  55.3249799  83.1699038   4.5587666  54.9846248  81.9529399
  30.8219251  10.3801927   3.1812968  31.4824434  10.5321206   3.8572148
  31.3185343  10.0573146   2.4293920  16.3508880  39.4054146  59.1449013
  15.7382800  40.0013732  59.5759194  16.1990346  38.5596370  59.5666033
  45.1863474  33.0393511  65.1939540  44.6841236  33.6583681  64.6640285
  44.5466002  32.6721816  65.8039883  48.4320248  71.8235057  81.3556423
  48.1621529  71.0059840  80.9372414  47.7471799  71.9998723  82.0007115
  49.3727431  41.7950813   5.0630544  50.0904727  42.2872210   4.6644385
  48.5873476  42.2956038   4.8420046  54.8713735  47.9119469  29.3298059
  54.6701971  47.7016583  28.4179185  54.1257722  48.4344866  29.6252085
  53.1977145  45.0668400  10.3510778  53.7636443  44.3568374  10.0480074
  52.6999985  45.3242794   9.5750395  75.4003015  20.7287661  71.4576463
  75.1901985  21.6583663  71.3685846  75.0683510  20.3300505  70.6532418
  24.9468603  50.2582675  53.8647122  25.4610875  49.5841294  53.4204825
  24.5724131  50.7803040  53.1551355  85.6715058  62.3763642  64.8944254
  84.8988164  62.3138404  64.3329331  86.0250258  63.2484465  64.7191311
  79.0308501  32.7774299  12.0190143  79.9091812  32.7610076  12.3991415
  78.7506054  33.6888422  12.1028139  69.2239085  48.1342545  45.6433398
  69.3751244  47.7041485  46.4849896  70.0861930  48.1586471  45.2284875
  67.4187805  30.8556790  66.7125596  66.6484170  30.2920010  66.7835460
  67.0664406  31.7455770  66.7255980  74.6703250  40.9205421  50.6115763
  74.4573918  40.0529176  50.2678919  73.8674786  41.2101577  51.0449264
  74.0895313  50.3480867  66.5800145  74.7395438  49.9860452  65.9778172
  74.5929774  50.5947178  67.3558669  13.8243003  55.9001891  49.9715652
  14.7773951  55.9451887  49.8952951  13.6710714  55.3380666  50.7310196
  68.3475045   2.7233276  26.8997453  67.8168302   1.9348650  26.7859763
  69.0089123   2.4757083  27.5458538  57.4057088  24.7953693   2.2109113
  56.4808086  24.7553856   2.4542067  57.8635638  24.3779863   2.9405632
   0.7949921  42.9943924  51.8936943   0.8850362  42.1082631  51.5431249
   0.1043180  42.9223013  52.5524841  37.6713843  39.3487279  71.1338671
  38.3268214  40.0108249  70.9141818  37.0477446  39.8067874  71.6973268
  61.6239664   3.2514345   9.6319528  60.8631419   3.6921592  10.0102906
  62.2409357   3.9584716   9.4430634   0.4201063  70.3585138  11.0828378
  -0.1169272  69.7764871  10.5451840   1.1955338  70.5304229  10.5486175
  79.7530503  13.6572085  22.8502857  78.8996507  13.7623826  23.2708560
  79.6596138  14.0974409  22.0054798  73.9538171   3.5966314  71.3130003
  73.3818972   4.1419277  70.7728232  74.5340288   4.2190324  71.7514103
  71.3690664  24.1146679  44.8899475  70.9542277  23.4962340  45.4913460
  70.6668358  24.7165418  44.6432659  81.5725234  59.1462284  27.3638111
  81.8861451  59.5081587  26.5350290  82.2545657  59.3709967  27.9966849
  55.6886387  39.1913673  85.2009694  55.7377032  38.5123816  84.5280631
  55.2817921  39.9369856  84.7596520  20.0439278  42.5516717  19.7688716
  19.5754529  43.2027079  19.2464590  20.1537360  42.9655065  20.6249760
  65.3407020  49.2827583  38.5982351  64.9019850  49.2132276  39.4461293
  65.8676901  50.0789672  38.6658129  26.2979526  28.4744199  85.6492361
  26.7547494  28.1703127  86.4335111  25.4516761  28.7856156  85.9704915
  55.3830827  20.1684938  86.3012641  54.6593407  20.2152042  85.6765662
  55.5028979  21.0709679  86.5969273  72.6760116  64.4510044  87.8603156
  72.2905351  65.2757993  87.5647600  73.4171737  64.7148218  88.4055778
  74.0928565  69.8887110   4.7750814  74.5944006  69.5517769   4.0326794
  74.7390576  69.9917551   5.4736785  32.2091037  57.3339637  12.4786799
  31.9230300  56.4764569  12.7934428  31.4970967  57.6308390  11.9119850
  53.1396348  47.1956069  12.2047906  53.0990877  46.8667013  13.1027933
  53.0285370  46.4169496  11.6592799  80.4833647   3.1810359  59.5870497
  80.6052224   2.2329760  59.6376954  80.5192644   3.4760775  60.4969363
   0.1551242  33.3075375   2.9235797  -0.3350903  32.5025317   3.0905745
   1.0670095  33.0726873   3.0954592  19.9658509   3.6587550  22.9468299
  19.9793269   2.8567321  22.4245182  19.0649415   3.9746401  22.8774708
  31.1336630  40.4023532  14.6979267  30.9054928  40.4119860  13.7683691
  30.5780252  41.0771769  15.0879413  49.5077872  55.6130115  45.6795841
  48.7343870  55.0696192  45.8306096  49.3583840  56.0089357  44.8210071
  29.0272006  64.2177444  65.7456150  29.0498200  63.6520117  66.5174095
  29.2707603  65.0826873  66.0754395  68.9718110  66.0053059  88.2127350
  68.4660500  66.0108834  87.4000810  69.4172901  66.8524577  88.2234156
  30.8213599  39.3561514  11.0318745  31.1961319  40.2273647  11.1613548
  30.8779164  39.2089882  10.0877473  48.2766305  32.7694731  74.1377345
  48.5361748  32.0871726  73.5185943  48.9908182  32.7994828  74.7743405
  53.8432217  67.4594283  11.3828870  54.0987617  68.1370060  12.0088420
  53.2868649  66.8654323  11.8867399  15.5045372  51.5308415   3.9725673
  15.8850036  52.3817912   3.7549398  15.6601725  51.4320566   4.9118495
   4.5401343  57.1903177  60.9404219   4.1666369  58.0358200  61.1891332
   3.8691332  56.5517641  61.1817486  67.3185864   6.4034111  35.2736127
  68.0918234   6.3050155  35.8291797  66.5967072   6.0702700  35.8066599
   7.5027349  36.0649872  88.6754854   6.9269804  35.6501188  89.3178427
   7.3935271  37.0037855  88.8270214  35.3280849  15.7670976   2.2842677
  35.8758335  15.9077706   1.5119890  35.8190006  16.1669430   3.0021516
  43.1106640   4.4309878  75.7201840  43.8057006   4.9799876  75.3572030
  43.2266183   4.4934426  76.6682799  31.2877681  60.5861762  57.6389812
  32.0015982  60.2366447  58.1723724  31.0374275  59.8597344  57.0681540
   6.2473326  33.9044850  63.5301859   5.6625451  34.4834372  63.0412382
   5.7439836  33.6544368  64.3050068  34.5176065  40.8506762  39.1273552
  34.7991177  40.4314473  39.9405159  35.3014475  41.2936966  38.8024579
   9.1330171  26.0282472  63.5168202   9.7296230  25.5969059  64.1285701
   9.3071829  26.9625229  63.6309563  41.5017971  41.8161797  50.9997866
  41.9473061  41.0058772  50.7524746  41.4871178  41.7989762  51.9567195
  44.1439327  36.6929888  17.0920113  44.5425637  37.4572690  16.6758371
  44.8801374  36.2208600  17.4810215  10.8635807  54.9868610  33.0968734
  10.9403778  55.7659667  33.6476259  11.7388366  54.5994785  33.1065586
  60.1994605  13.9334120  47.9664419  59.8458266  14.3783162  47.1962243
  61.0644363  13.6294539  47.6913814  63.6922634  53.4083570   7.5560473
  63.2422106  54.1760327   7.9086921  64.1362382  53.0229951   8.3114375
  46.2186143   9.0510539   7.4677110  46.4087180   8.6659143   6.6122814
  45.8622214   8.3270271   7.9824937   6.6387394  65.7585970  28.5800242
   6.1267543  65.2728095  29.2266412   7.1323269  66.3964697  29.0955061
  55.7560377  28.1551526   1.3923421  55.3366262  28.1402988   2.2526357
  56.6050565  27.7359308   1.5325274  86.5853457  26.2032992   6.5248712
  86.7896017  26.2047715   7.4600232  86.9656710  27.0175515   6.1953599
  23.7960882  32.9754444  17.1459616  24.0609526  33.7895012  17.5742023
  23.3099828  33.2592521  16.3717609   2.6985980   2.7866446   0.9210015
   2.6465367   3.0543663   0.0034796   2.3810726   3.5455680   1.4103323
  26.9025994  54.7759324  71.1762677  25.9836971  54.7260808  71.4396405
  27.2553277  53.9079208  71.3721514   3.0563253  55.7669553  56.5204405
   3.9982926  55.9370222  56.5230074   2.9829009  54.8234126  56.6638555
  64.4813955  63.7910830  72.4102775  64.9476837  64.3825179  73.0010498
  65.0618391  63.7007256  71.6545311  73.5493422  15.9452907  46.7830870
  72.7342763  15.5899755  47.1375590  73.3428975  16.1555323  45.8723671
  75.1863069  49.0393417  55.9332052  74.4223170  49.1086640  56.5056960
  75.6745745  49.8482685  56.0863854   7.3222163  68.9398495  63.9112023
   7.5607461  68.6005954  63.0485077   7.5060293  68.2175563  64.5118164
  25.5520736   5.7360889   6.9563620  25.8099545   6.6535765   7.0455007
  25.3080446   5.4687099   7.8424715  80.4558267  28.0704630  79.3634451
  80.9847645  27.2745407  79.4178926  81.0343266  28.7645647  79.6793446
  24.6524790  57.1782696  55.6964728  24.8493446  57.3488578  54.7753998
  23.7564677  56.8415634  55.6915099  64.3621788   2.3182052  52.2709657
  63.9863347   1.6500086  51.6978283  64.0393969   2.0941920  53.1438126
  12.1125007  44.4534294  67.8217793  12.6541938  43.7294907  68.1359660
  11.8874880  44.2118197  66.9233218  18.0755541  63.6620560  88.7823306
  17.2897684  63.9416798  88.3126679  18.7599092  64.2598140  88.4813732
  75.4289561  46.2084734  34.5380067  75.1382384  45.4574624  35.0554016
  74.6205659  46.6616111  34.2984168  24.4406614  37.5025883  85.7603110
  24.7647942  37.6747611  84.8762712  23.4888649  37.4696191  85.6642472
  15.4873627  66.2379399   3.0028888  16.3816370  66.1840962   3.3399441
  15.0429379  66.8414712   3.5982613  72.3951910  28.6463184  84.5103995
  71.8483080  28.8928251  83.7644871  72.1930138  29.2982804  85.1814447
   3.5798079  55.7142912  75.5818244   4.2268850  55.4917485  74.9124980
   3.1883205  56.5317631  75.2740757  75.0120963  59.4146310  54.9765883
  74.4100560  60.1271044  54.7617370  75.1459181  59.4908197  55.9213205
   5.0347685  47.5304124  43.3307710   4.2171782  47.3499704  42.8668544
   4.9201422  47.1185154  44.1871783  47.2909415   6.6025239  70.9572623
  47.1535047   7.1746977  71.7122193  47.9213125   5.9501860  71.2627447
  81.5659700  25.0214895   4.2649968  82.2696280  25.5244608   4.6750177
  81.4750137  25.4042698   3.3923926  76.0929734  56.7866672  25.1689392
  75.5352024  56.3660812  25.8233325  76.6006971  56.0690596  24.7901413
  74.6655178  32.1548225  25.4865865  73.8966572  31.7020323  25.1400807
  74.3081402  32.8059240  26.0903910  54.0844648  69.8317458  20.2275982
  53.1821155  69.6302176  20.4753562  54.5961615  69.0986319  20.5695665
  44.6590749  42.6552492  65.6052776  45.5566720  42.8208628  65.3169662
  44.1998116  42.3792473  64.8120992   0.8662651   2.6823340  76.5638359
   1.5636201   2.9673405  75.9733283   1.0553822   3.1270822  77.3900717
   2.8248910  18.0683898  30.2350922   2.8243189  18.1491204  31.1888816
   3.0785099  17.1599659  30.0717669  55.3949158  64.7625220   0.0697734
  55.4860218  65.6302464   0.4634559  55.9726070  64.2024337   0.5882382
  54.4732886  31.8843739  65.1508615  54.2936820  32.8245173  65.1610363
  54.3972365  31.6160777  66.0665389   3.5452187   2.6063649  57.7925156
   4.0790124   1.9711783  57.3151958   3.3387139   3.2803639  57.1449718
  45.4466986  60.9413109  58.7037667  45.3592087  61.0735926  57.7597969
  45.3811238  61.8207483  59.0759516  55.0252718  23.5706600   2.2975049
  55.6731102  23.1849141   1.7078122  54.3679743  23.9514338   1.7150934
  26.3745902  10.1353469   4.3106515  26.2785796  11.0417422   4.0183137
  26.6087629  10.2056965   5.2360951  58.8496066  24.1773417   6.9108709
  58.4565510  24.7105988   7.6017949  59.7665470  24.4511817   6.8893358
  61.9102057   2.2345874  37.4193627  61.0439826   2.4769340  37.0920137
  62.2482486   1.6187103  36.7692440  25.1315642  58.3333595  37.3163437
  25.6491309  59.0512200  37.6810805  25.7509588  57.6079504  37.2365708
  58.8667917  58.2335134  21.7772398  59.4287746  58.7569249  22.3485956
  59.4697930  57.8286015  21.1538077   1.0304878  56.0807533  52.3168372
   1.2022226  55.1427963  52.2333163   1.5473485  56.3522696  53.0753658
  78.9397050  60.7398884  10.3159543  79.6283283  60.8303180  10.9746290
  78.2400803  61.3181178  10.6199408  19.6381544  22.5893107  30.5802257
  18.7647353  22.5647249  30.9710793  19.5256715  23.0928386  29.7739757
  20.0508211  22.5831598  74.0025153  20.3007028  23.4914601  73.8328639
  19.9869389  22.1860897  73.1339036  66.0716281  66.9066948  42.3145097
  66.7417730  67.2491227  42.9060169  66.1403157  65.9557623  42.3996052
   2.0658879  14.4101942   7.2132222   2.1685231  13.6371043   7.7682267
   2.6456008  14.2492387   6.4687370  78.7778307  67.3170453  64.2080048
  79.0658464  67.3519716  65.1201775  78.0261309  67.9085156  64.1713701
  42.4395007  20.0920114  81.4308447  43.3591605  20.3533412  81.4773696
  42.2555138  20.0290630  80.4936051  59.7581926  57.8133199  47.0302046
  60.0206048  57.8195969  46.1096981  60.5641456  58.0034885  47.5103166
  77.8735912  34.4199876  19.1387682  78.8222210  34.2944959  19.1629579
  77.5943154  34.3109820  20.0478088  50.9687057  65.0221000   9.3864498
  51.1753894  64.4947206   8.6148381  51.3095280  64.5136681  10.1223635
  66.6508550  19.0348095  54.6568962  67.5328344  18.6631963  54.6726385
  66.2033424  18.6208883  55.3948892  68.7975399  36.8931768  52.8154425
  69.6942808  36.6579936  53.0537203  68.8081867  36.9400163  51.8594484
  10.8918000  57.9124552   2.7342491  10.4642322  57.2118374   3.2267451
  10.2135950  58.5797102   2.6291748  39.5634373  15.0123238  69.6290672
  39.2692339  14.7402019  70.4983347  39.0793986  14.4490680  69.0251787
  58.5424028   5.1883745  79.7894659  58.6526054   5.2397490  80.7389120
  57.8981391   4.4923077  79.6604422   8.7109775  34.7847137  26.8460325
   8.5279820  35.0539396  27.7461780   7.8862076  34.9262684  26.3813298
  82.3544954  64.2593425  38.2008581  82.3114743  63.4197450  38.6585227
  81.5202725  64.3215546  37.7356338  54.1404658  61.4703256  31.0195901
  53.6087330  62.1286129  30.5722089  54.8423072  61.2684378  30.4008076
  54.8176589  53.2084696  53.1244327  54.1076979  53.5540551  52.5833617
  54.6268838  52.2736357  53.2013885  56.5853687  24.6719932  49.0697077
  56.4230987  25.1175762  48.2382294  57.0489786  25.3188295  49.6015916
  38.8758097  28.6973469   4.1252069  39.5911440  29.2118548   4.4991188
  38.9137295  28.8811628   3.1865879   8.7621460   1.2570443  35.2689490
   9.2753728   1.1418438  36.0686733   9.1475344   2.0240836  34.8454419
  27.6464015  43.2427584   5.6289831  27.3752506  42.4625568   5.1452534
  27.7106499  42.9505441   6.5382217  24.8070201  67.8166269  10.5451611
  25.1531633  66.9429287  10.7270075  24.3161553  67.7148395   9.7297331
  29.8532223  43.1040719  58.9160960  30.0737204  43.9283760  59.3498414
  29.0351905  43.2877887  58.4542475   5.1995695   2.8755914  86.5665556
   4.4536587   2.8394298  87.1653387   4.8108626   2.8014322  85.6949828
  17.0520869  52.5222658  58.7095834  16.2781125  52.2531455  58.2148412
  16.8061954  52.3964842  59.6260703  39.5743092  43.2896507   2.5292872
  39.5849036  43.8780402   3.2842160  39.0997534  43.7747168   1.8542025
  76.6676200  59.8496608  13.1113558  76.8657877  60.7044963  12.7289717
  75.8032913  59.9591768  13.5078076  81.2037547  61.4815786  79.3781777
  80.8358318  62.3464751  79.5593364  82.1088438  61.5373293  79.6846699
  64.7309480  24.7571570  27.1181671  63.9054921  25.1969070  26.9145143
  64.5805200  24.3481209  27.9703952  65.9463472  58.3928521  59.6140179
  65.2511612  57.7394298  59.5366383  65.4836437  59.2282054  59.6797605
  81.3192725  47.9532132  17.5772516  81.9624864  47.5309426  17.0078701
  81.7371299  47.9717004  18.4382309  14.3988442  16.7753035  26.8877642
  13.6180011  17.1771235  26.5069011  14.7095380  16.1701844  26.2143163
  26.3934462  56.8164654  88.1404882  26.5458372  57.2572042  88.9764057
  26.0490138  57.5016977  87.5677275  43.6496660  63.8487420  30.4462296
  44.1584492  64.0731722  31.2253333  43.8876001  64.5174129  29.8039692
  73.0905791  59.1605417   4.5674983  72.1442895  59.2411734   4.6869402
  73.4636918  59.8046865   5.1692425   0.7630380  38.7759440  68.2635767
  -0.1713052  38.6470109  68.1004483   0.8499954  39.7147381  68.4289127
  36.8925285   3.5355588  58.7832664  37.2856667   2.8757432  58.2120242
  36.0021927   3.6424189  58.4484306  80.1221694   0.3357319  43.2866779
  79.6709107   1.1371583  43.0215116  80.3627099  -0.0875704  42.4625497
  53.2326225  25.6228961   1.0258255  52.4666266  26.0259177   0.6171010
  53.1756094  25.8791915   1.9463112  75.1774612  24.4576374   0.2041965
  75.1490427  24.9248695  -0.6307396  74.2769402  24.4892812   0.5271400
  51.9306420  41.5841661  17.2317313  51.4187371  41.2119295  16.5136609
  52.8238016  41.6299378  16.8905529  51.6187236   9.3650801  34.7933420
  52.0986347  10.1932600  34.7992687  50.9131378   9.4925880  35.4274731
   8.0236704  62.6227942  46.3407519   8.5475858  61.8220771  46.3163252
   8.2304827  63.0694758  45.5198159  50.1254118   9.7612787  15.8057167
  50.3926520   9.3278715  14.9951781  50.2924579   9.1132833  16.4901357
  46.8246623  18.2788576  71.2680570  46.4014706  17.7055609  71.9071748
  46.5583722  17.9279437  70.4182447  55.3245034  63.1292738  74.0067256
  55.4636413  63.0051982  73.0678551  54.4453597  63.5023219  74.0713269
  60.8430973   5.9843888  83.1993697  60.8435808   6.9234308  83.3849278
  59.9162287   5.7494678  83.1551147  72.0830059  63.7241008  69.6034693
  71.5857442  64.4102583  70.0486104  71.4156895  63.1581038  69.2154385
  36.2272520  35.5259701  53.5464944  37.0788411  35.1544933  53.3162057
  36.4349701  36.2642813  54.1191912  16.3360419  54.9824091  61.3198991
  16.6808907  55.1700608  60.4469168  16.4903202  54.0456613  61.4421020
  83.1353388  70.9044627  71.3485062  83.3451809  71.7877411  71.0451625
  83.4053012  70.8961433  72.2668106  79.4718478   5.2702050  31.4207584
  79.2460908   5.9891957  32.0109431  80.1701379   4.7981924  31.8744399
  22.5695629  44.1208091  86.3240324  21.6511512  44.3043694  86.1264032
  23.0147904  44.1902310  85.4795297  81.4903808  44.0537253  88.0619074
  82.0463893  44.8066066  88.2625468  81.0082906  43.8892691  88.8723240
  77.3530715  34.7495538  87.7864162  76.7692039  35.3675868  87.3466824
  77.5902702  34.1189275  87.1065052   5.8211087   1.9093497  68.5283657
   6.5415439   2.4278425  68.1700778   5.8863515   2.0310522  69.4755530
   7.8101150  18.2614767  18.9332325   7.7124206  19.0903976  18.4646413
   6.9442131  17.8562260  18.8861416  74.5215111   5.8278064  20.2657276
  73.7654426   5.6183227  19.7173583  75.0765971   6.3744967  19.7096332
  65.0575346  39.1903913  56.4710427  64.2835937  39.5754562  56.0599802
  64.7832754  39.0018466  57.3685195  67.4335183  34.1622435  11.7509417
  67.7092654  33.9830521  10.8520058  66.5625236  34.5490697  11.6616922
  64.0051988   2.2476815  23.8836615  64.2503218   2.9657330  23.3000962
  63.6774884   2.6808275  24.6718380  15.4996162  48.2580758   8.7764342
  15.7964418  49.1445280   8.9821741  14.6044420  48.3731899   8.4576180
  20.1183437  37.1846268  56.4420162  20.9583467  37.6420692  56.4049584
  19.5692651  37.6400171  55.8037653  69.9767549  11.0829150   0.7223545
  70.6666859  10.7437260   0.1521108  69.5187437  10.3024980   1.0344552
  38.1941535  70.8042751   2.1191130  38.5675763  70.1584940   2.7189080
  37.6943514  70.2851281   1.4891002  14.4863982  59.3668739  58.2438183
  13.5920645  59.7051068  58.1991229  14.3837241  58.4153455  58.2269796
  64.7145114  47.8140040   5.5508420  63.9677064  47.3832393   5.1349623
  64.3395275  48.2673850   6.3058682  60.3120547  70.3179282  53.4946312
  59.9611390  69.6129881  52.9504350  60.9032157  69.8775220  54.1052070
   9.6852630   1.6219108  15.3467665  10.4101505   1.6878914  15.9683906
   8.9133635   1.8796443  15.8507274  52.5246527  59.5377229  -0.0788410
  53.1814032  58.9226833   0.2477121  51.7050915  59.2481985   0.3220665
  55.9035852   5.4947552   6.9057840  55.6820448   4.5638680   6.9302939
  55.9877644   5.6964666   5.9738730  62.7189487  49.0733674  45.6923506
  63.3031950  49.6701082  46.1600990  62.2862804  48.5713973  46.3830430
   0.6876635  24.0162431  34.7278946   1.3216440  23.4347588  35.1476285
   1.1550434  24.8450945  34.6240041  66.0229185  70.6154999  38.0123336
  66.0881607  71.3997242  37.4673863  66.7057452  70.0339855  37.6779378
  70.2418353  49.1333669  36.7318222  71.1697331  49.0272065  36.9415065
  69.7965433  49.0697106  37.5767451  84.0013095  28.5678715   4.9904655
  84.0060920  28.5453951   4.0335413  84.1117540  27.6537613   5.2520690
  21.9200347  16.8164803  16.0736040  22.3948603  16.7241016  15.2476266
  22.3012366  16.1497245  16.6448777  73.0629101  46.9829958  78.3739567
  73.3168024  46.1061929  78.0858817  72.1079450  46.9495000  78.4300937
   7.8708956  63.7812932  36.5030541   7.1442298  64.3842530  36.3461205
   7.4997393  62.9129958  36.3464194  45.2467857  40.6097668  48.4100951
  45.1130597  40.3663363  49.3261141  45.6046906  39.8211062  48.0024796
   8.4179118   4.0320938   9.0370504   9.0264626   4.6540846   9.4358302
   8.5047618   3.2392343   9.5662600  55.8624610  14.7308386  16.0893357
  55.8539359  14.2875125  15.2410308  55.3938944  15.5512240  15.9355666
  82.0941564  30.9977074   4.5789006  82.0539853  30.1132245   4.2151588
  82.9850909  31.0761950   4.9199390  18.0518920   0.8719468  69.9247141
  17.7321206   0.0109843  69.6550446  18.8160166   1.0282330  69.3698086
   9.8373225  48.6225660  46.4970425   9.5376606  49.0515415  45.6955348
  10.5380964  48.0379947  46.2082102  29.9679161  11.0021917  73.6084040
  30.5685737  10.7419503  74.3067711  30.5317216  11.1436535  72.8479149
  10.4873698  13.9463070   8.5811518  11.2519923  13.5493887   8.9983328
  10.8534133  14.5403521   7.9259004  63.1748689   9.3990689  68.9077890
  62.4912321   8.8753297  68.4899736  63.7506776   9.6589017  68.1886484
   4.9503229  36.9675768  56.8648304   5.7824045  36.8590901  57.3253764
   4.7319948  36.0887999  56.5544826  51.8656414  46.4922905  32.1612564
  51.1349352  46.7246262  31.5882639  51.4613393  46.3409179  33.0155737
  77.2822200  63.0532790  54.5155710  77.2424993  62.3976728  55.2118717
  77.2180192  63.8920017  54.9723580  17.7710536   3.6378802  29.3887490
  17.9610340   3.4473950  30.3073646  17.7647047   4.5937498  29.3387003
  27.4359448  55.9195340  42.8882882  26.9724516  56.3421103  42.1652148
  28.3162433  55.7600667  42.5478819  23.1411252  66.3196761  22.4156469
  22.4794057  66.9260974  22.0830625  23.1020016  65.5719092  21.8193703
  67.0697654  59.1814662  15.4422691  67.4457715  58.3816765  15.0745902
  66.7129318  59.6478591  14.6863728  39.2117732   8.0614362  82.1928839
  39.0073367   8.5961578  82.9600282  38.8584467   8.5572625  81.4542713
  40.8199612   8.8600918  73.8633124  40.9733932   7.9551757  74.1350059
  41.2197734   9.3886060  74.5540039  12.6501537  56.5262819  40.7295555
  12.8159288  56.3831320  41.6613594  13.4632413  56.2631209  40.2984329
  50.8865806  46.3423512  68.7770603  51.5935229  46.5400240  69.3913810
  50.4904328  45.5403579  69.1178029  49.6739964  24.1968925  58.4802616
  50.3561477  23.7271085  58.0004653  48.9090829  23.6234704  58.4320296
  79.0268894  57.3594539  44.3893307  79.9174031  57.6585864  44.5730070
  78.5708190  57.4361559  45.2273930  37.1933392  67.4954650   8.7940321
  36.3516352  67.7210776   8.3979702  37.0391011  67.5585697   9.7366138
   9.9139878  40.3127268  45.1423927   9.8408533  39.5492995  45.7151596
  10.3133220  39.9737115  44.3412481  34.8933629   1.6236609  83.0588498
  33.9545045   1.7427573  82.9153478  34.9483984   0.9542800  83.7408557
  24.8751788  58.4011252   1.3325080  24.1541756  58.8041593   0.8488245
  24.5488676  57.5330540   1.5695841  16.1827990   1.3270189  77.0968441
  15.5920720   1.0204043  77.7847836  16.0402777   2.2729368  77.0628010
  22.8050404  59.2311732  30.0715321  22.7163276  60.0680082  30.5276781
  23.4140941  58.7274551  30.6114889  78.1254380  66.1535846  75.3793112
  77.3615611  65.5946292  75.5217640  78.8401038  65.5419335  75.2022023
  61.5817625   4.9399751  51.1212660  61.2378672   5.8332376  51.1142043
  62.5270210   5.0480633  51.2263144  51.0517503  35.2801683  59.9774708
  50.9394261  36.0076265  60.5893692  51.9775952  35.3107364  59.7364130
  27.8650965  68.4758579  74.8962737  27.3135312  68.1652989  74.1782482
  27.8520358  67.7623442  75.5342074   9.2050273  32.4245191   3.3655001
   9.5814405  31.6448627   3.7737658   9.5220367  33.1519493   3.9008338
  53.5924146  55.7617433  63.8147476  53.0293994  55.3285702  63.1731816
  54.4800336  55.6318799  63.4808318  47.3187702  10.5504752   3.0803674
  47.5108867  10.7959413   3.9853919  48.1745846  10.3566473   2.6979484
  49.8117098  44.7654930   2.1312816  49.3118280  44.0330430   1.7709109
  50.3931947  44.3639730   2.7769509  86.7254727   1.5448779  70.1256843
  87.5020667   1.1674418  69.7125552  86.0160609   1.3692645  69.5075203
  50.4376008  37.4425894  55.1153254  49.7820124  36.8661562  54.7226927
  50.8854433  37.8397503  54.3683768  37.2463765  36.4322329  30.5175307
  36.9482906  35.5396838  30.6928383  37.1878821  36.8749236  31.3641919
  78.0332282  68.5088530  38.5324674  77.1426875  68.6434013  38.8566061
  78.3018660  69.3678722  38.2066584  63.7676898  33.9925428  72.6786892
  63.0996795  34.5782708  72.3224355  63.3848195  33.6576613  73.4895509
  74.8385927   5.3055878   4.6363137  74.7048147   5.6005029   3.7355583
  74.3439245   5.9288523   5.1683632  74.2013297  42.3649410  81.4743569
  74.6218351  41.5658997  81.7920673  73.2640015  42.1976893  81.5727167
  54.3277881  45.7500953  26.0444851  54.1258468  46.6466995  26.3119780
  53.7382490  45.5808561  25.3096153  68.7445033  45.2047082  29.1405869
  69.5173562  44.6501532  29.2473531  68.8217630  45.8594070  29.8345842
  39.9004684  11.4409813  86.1609980  40.3747547  11.7899786  85.4063555
  40.0174325  12.1015402  86.8437960  29.3170763   2.0289772  83.5706323
  28.6354669   2.6253573  83.8804245  29.3338752   2.1564705  82.6221097
  20.5014953   4.9855953   4.5990925  21.4006271   5.2775101   4.4488273
  20.2884867   5.3072515   5.4751042  39.1269787  68.1310716  53.5279728
  39.1271007  69.0784564  53.3912471  39.9487250  67.9551081  53.9862321
  49.2763570  51.4142521  12.6301325  50.0701090  51.9016257  12.4095498
  49.1590743  51.5597491  13.5689122  62.8985791  45.3026849  20.8829235
  63.3262291  44.4782467  20.6513009  62.0297823  45.2416748  20.4858067
  72.6341327  35.9831417  25.6981971  73.0374916  36.5761290  25.0642417
  72.4841586  36.5259936  26.4721813  40.1246434  59.6880052  33.8870942
  39.5590001  59.2693326  33.2382548  40.8877159  59.1131438  33.9461419
  82.6157769  60.2240587  32.6489066  83.5209376  60.1056334  32.3609978
  82.5149840  59.6137282  33.3793650  47.3665547   9.3332101  12.4122111
  47.3661540   9.8513942  11.6074024  48.2514365   8.9719172  12.4640121
  13.4704449  38.9818759  68.1554075  13.5771961  39.6160061  67.4463836
  14.1679241  39.1957862  68.7750824   6.6219801  44.5517416   9.0378781
   6.5614331  45.4637297   8.7535482   6.4920609  44.0423416   8.2379628
   2.6835627  19.4212228  66.2811932   3.2510834  19.5199976  65.5167355
   2.9929661  20.0858278  66.8966618  39.3721712  22.1050191  12.1445084
  39.5014077  21.9263304  11.2130579  38.7850534  21.4102214  12.4424695
  61.4386039  42.5083594  29.4106825  61.8599540  43.3187304  29.6970301
  61.8619276  41.8227642  29.9273913  59.4674825  67.9174537  52.6131587
  58.7862880  67.2614429  52.4653218  59.9116423  67.9959818  51.7688914
  25.2320237  38.1985515   7.7215505  25.6920776  37.8252149   6.9697513
  24.6568473  37.4955854   8.0236144  27.6889138  57.5019622  74.9043073
  28.0720510  57.7603658  75.7425587  27.5174595  58.3291410  74.4541846
  60.8222158  51.6549515  61.8570973  60.4636608  51.3891721  62.7038744
  60.9562205  52.5991405  61.9394489  64.0074662  64.7777207   7.9259792
  64.6097747  64.7777205   8.6699256  64.1891905  65.5998612   7.4706848
   3.4856005  43.6006807  42.2125055   3.5680020  44.3263500  41.5937601
   4.3305888  43.5714235  42.6612489  56.9593162  11.2325119   0.1504891
  57.7451597  10.6897197   0.0867836  56.2337425  10.6158697   0.0528823
  47.6200224  24.3715423  63.5151359  48.2275425  24.7607546  62.8861169
  47.7487887  23.4278223  63.4200375  18.6549630  41.2785855  22.6756882
  19.3815362  41.8901802  22.5562093  19.0409001  40.5359971  23.1402814
  25.8384377   4.8414892  42.6609763  24.9480966   4.8984867  43.0077844
  26.2971343   4.2651213  43.2722286   5.1824730  65.6273821   7.3907298
   4.5880910  65.0258466   6.9422915   6.0543120  65.2657738   7.2314559
  36.3984456  62.0767537  87.6559673  36.6370417  62.8633495  87.1654871
  35.4514656  61.9999315  87.5395241  82.3663266  38.2439717  85.0457731
  83.3015927  38.0471207  85.0982977  82.2191159  38.8928121  85.7339352
  71.5685091  14.8608069  61.1238896  72.0555269  14.0885615  61.4114353
  70.7436257  14.5117653  60.7862964  82.8675166   8.5634252  47.3239196
  83.2969500   9.1540710  46.7050851  82.0562350   8.3061773  46.8858813
  60.7728751  37.0640463  25.3878554  60.7378073  36.8113574  26.3104335
  61.7074925  37.1404983  25.1958206  62.3905570  70.9950889   0.5977888
  62.8512646  71.5204939   1.2519523  61.9981560  71.6381154   0.0072210
  41.8474956  10.4533638  75.8378722  41.3043777  11.1669213  76.1726714
  41.6692265   9.7200899  76.4267368  48.2412452  46.8520111  20.9690871
  49.0029056  46.3535728  20.6730051  47.4894786  46.3330528  20.6831481
  47.2821969  47.5753814  33.8091721  47.5704226  48.3458139  34.2986530
  48.0938105  47.1454703  33.5395579  82.7771522  40.1736583   1.6913781
  82.3602340  39.4998453   1.1543613  82.8132677  40.9437374   1.1240108
  72.3417509  43.8134278  35.8755355  71.9273518  42.9510670  35.8465681
  73.2663206  43.6409639  35.6976059  76.3195322  12.8509086  14.0271393
  76.3927018  12.0436627  13.5179910  76.5104511  13.5480239  13.3995948
   7.4267523  52.0961396  68.7645613   6.9175719  52.7343950  69.2641584
   7.1004721  52.1780970  67.8684274   1.4629412  39.8704215  29.0221261
   2.3102326  40.0403330  28.6104719   0.9881333  39.3395244  28.3826440
  81.4545976  17.3429086  27.7595910  81.7585254  18.2430295  27.6427917
  81.9371423  17.0242553  28.5223770  56.2331015  34.1199120  87.0598750
  55.8885056  34.9868830  87.2739935  56.0367788  33.5871232  87.8304757
  47.4842710  41.3729989  44.5186253  47.1701398  41.9600175  43.8309026
  47.5533287  40.5191189  44.0915986  37.5765493   3.0014493  12.1608686
  36.6210007   2.9506528  12.1849170  37.8132856   3.4466394  12.9744984
  66.6545033  49.2144392   9.1969941  67.5927859  49.3901772   9.1264697
  66.4551670  49.3461273  10.1239003   8.2392567  55.7340892  83.0946563
   8.3334643  54.9071406  83.5674276   8.7968713  55.6337715  82.3231421
  54.6281574   4.0326435   2.2957105  54.6596633   4.3024046   1.3778499
  55.2210082   3.2827865   2.3454529  50.0498399  52.2053503  35.6802356
  50.5535034  51.3989401  35.5695221  49.8308581  52.4753212  34.7883866
  58.4476993  58.8541019  64.1340013  59.2701946  59.2245056  64.4542111
  58.6155600  57.9135973  64.0747935  25.3734129   9.3726242  88.2565662
  25.7387461   9.5295844  89.1272711  24.5225145   8.9671866  88.4233717
  71.0842952  60.1458521  80.0185450  71.2748012  61.0415321  80.2972862
  70.7465259  59.7170317  80.8048380   4.4135401  17.3936585  85.3773426
   4.5114307  16.4916700  85.0722752   4.1707548  17.3096206  86.2994189
  68.4482193  29.4845719  10.2746291  68.8551651  29.7461652   9.4486776
  67.5114925  29.4521415  10.0804047   3.0116928  69.8933542  26.4014225
   3.1277398  70.1760054  27.3085461   2.1464663  70.2218162  26.1570303
  80.6470840  24.4034567  75.1295792  79.9694849  23.8223333  74.7840551
  80.2875110  24.7258547  75.9560165  56.9070711  41.1043320  12.0758786
  57.1954307  40.5833504  11.3264396  57.6048743  41.7469888  12.2035295
   6.6961623  27.7098139  80.0684483   6.5146391  28.4236537  80.6797697
   5.8804046  27.5995320  79.5799720  67.2475543  24.3358182  41.2079745
  67.4377249  23.9935582  40.3345187  66.2935229  24.4091579  41.2339983
  81.1811110   5.7857033  38.1457627  81.5441011   5.4863291  37.3121890
  80.2472418   5.5841878  38.0865045  60.7361987  28.8473008  70.3360603
  61.4738811  29.3145027  69.9439135  59.9786322  29.4054507  70.1605796
  23.5664339  29.6799225   2.4431964  22.9090117  30.2813643   2.7929045
  23.9359127  30.1406183   1.6898859  18.1194290  64.9945193  34.4035054
  17.7588349  65.7367350  34.8886029  18.6286814  65.3939640  33.6982836
  27.1629986  54.1599380  87.5812601  26.5875243  53.5237017  87.1566845
  26.5866706  54.8893603  87.8093413  55.6387195  68.7825264  45.8812594
  55.5008784  69.5474911  45.3226355  55.0177547  68.8963537  46.6007577
  84.4274943  25.2626090  27.8171012  84.5471844  24.5820563  28.4794864
  84.8910324  26.0228691  28.1683402  60.6367761  66.4932376  39.8926966
  59.7238677  66.4649803  39.6062848  60.7669126  67.3939069  40.1894981
  70.1375898  20.3971161  71.7711752  69.6538770  20.7736424  72.5063499
  69.4755139  20.2610380  71.0934067  28.4357613  67.7054851  68.1789961
  28.5781691  68.3248211  67.4631926  27.5193116  67.4437298  68.0904754
   8.5748070  53.0000988  83.9619277   8.9603982  52.2111490  83.5809953
   7.7380854  52.7073680  84.3230891  84.5379332  34.8890690  17.9450839
  85.2409205  34.3736681  18.3405617  84.1759673  34.3193811  17.2663584
  54.7276385  13.5188680  33.1771213  55.6360475  13.3897732  33.4498105
  54.2127056  13.0345323  33.8224855   6.8402627  39.6755565  20.5311930
   5.9139829  39.4964749  20.6929559   7.1534368  38.9062198  20.0555095
  54.1776524  25.4721609  44.5281364  53.3725565  25.9779851  44.4177082
  54.1545422  24.8277067  43.8207634  85.5032330   1.3163295  84.7064386
  85.1655738   0.6305286  85.2825422  84.7281178   1.8146511  84.4473948
   9.9270872  24.9962473  -0.0943970   9.6490107  25.5666832   0.6221979
  10.3637373  24.2628837   0.3389001  85.5354270  52.1829557  71.8519274
  86.0050446  53.0093646  71.9647963  86.2234575  51.5356357  71.6975810
  12.1717903  38.3533878  63.1764187  11.2597540  38.0733816  63.2539957
  12.6292223  37.8734968  63.8668478  32.0237068  54.5494657  84.6795562
  31.1758760  54.1076388  84.6326111  31.8480821  55.3534187  85.1684809
  60.0592176  24.3248086  48.6855990  60.6751221  24.5829391  49.3713556
  60.5910961  24.2781513  47.8911431  67.1871989  52.9611110  33.6871700
  66.6047372  52.2026171  33.7278793  67.4649063  53.0987186  34.5928049
  70.4394497  35.6907092  70.0364810  69.8111234  35.6395992  69.3161855
  70.2638040  34.9110719  70.5633075  17.9860293  56.1364334  29.3635991
  17.8660196  55.9864737  28.4258669  18.2130945  57.0638867  29.4307078
  52.8820101  24.2029611  69.6419307  52.6559280  24.4897451  68.7571292
  53.8250445  24.3528456  69.7086597  70.0199698  47.0853475  78.5025274
  69.7947346  48.0151146  78.5346850  69.9538479  46.7913282  79.4110495
   9.7695919  53.8958408  25.7125563   9.1181974  54.3012660  26.2848739
   9.3027778  53.1735286  25.2923401  44.7219647  58.6001801  66.8819314
  44.6614064  59.4817055  67.2500041  44.8794425  58.0351035  67.6383182
  72.2209093  49.4261547  48.8704407  71.3682979  49.1319579  49.1909620
  72.8192115  49.2667889  49.6004194  47.1331885  50.8443694  50.1917513
  46.4223933  50.3059253  50.5397167  47.9134281  50.5394584  50.6548790
  85.8085403  26.7579369   9.2371747  84.9738311  27.0345119   8.8590232
  86.1039271  27.5140324   9.7444203  11.2148435  27.9319991  68.6952572
  11.5082955  27.6636334  69.5659452  10.2722964  27.7651812  68.6982014
  10.2503653   6.1770837  84.2840599   9.7900524   5.3383782  84.3143421
  10.7795630   6.1312400  83.4877686  43.4718358  59.1901070  71.9558375
  42.5153582  59.2154235  71.9286053  43.7030925  59.7038117  72.7296978
  43.5595186  13.4398186  20.1566229  44.4530428  13.2196604  19.8932284
  43.0037664  12.9161555  19.5794329   8.8678403  71.3873110   7.0150751
   8.4458945  72.2031748   7.2844444   8.1416279  70.7918321   6.8300013
  54.6016722  68.5321564  41.1622924  55.5435921  68.3619169  41.1562049
  54.2078342  67.6914463  41.3953803  58.4601566  54.3370273  27.7344038
  59.1030477  54.4180304  28.4389330  58.8029470  54.8903481  27.0325758
  66.9226167  32.4665060   7.9711209  67.0362409  32.5266205   7.0225917
  65.9814041  32.3411781   8.0921315   2.1416432  68.5491491  82.4171411
   1.4367464  68.8564136  82.9871769   1.8684690  67.6714337  82.1502641
  22.2557871   7.0295927  15.0343395  22.4106166   7.2847526  14.1248599
  21.4465422   6.5191809  15.0054537  63.9641735  47.4221443  69.9814759
  64.4102392  46.7543179  70.5023072  64.4629814  47.4622392  69.1655011
   4.7614196  66.2694302  26.5698897   5.3495537  66.1995606  27.3218526
   5.2504710  66.7875280  25.9306438   6.2756965  53.7582183  29.4255836
   6.9941573  53.8511340  30.0512133   5.4886420  53.9542658  29.9338576
  26.1171881  36.2081736  61.5462691  25.7390991  35.6919386  62.2581552
  25.5959182  37.0108102  61.5294152  12.5386241  52.8025893   3.4144043
  13.4907844  52.7211628   3.4691060  12.3950971  53.5486780   2.8321814
  31.4873394  37.9709631  75.5192639  31.6551842  38.4198654  76.3478450
  31.5448487  38.6601830  74.8575234  47.5487536   7.8062891  24.7210914
  46.6673891   7.6094089  25.0383714  47.8138440   8.5815626  25.2159751
   6.5353803  29.6828484  22.5843435   6.9466232  30.4321606  23.0152059
   6.7577931  29.7868086  21.6591642  81.2325481  40.9662355  38.5087019
  82.1859039  40.9227388  38.5825443  80.9664079  40.0682677  38.3110785
  13.2493796  11.7117607  84.1295198  12.4861052  11.2330774  84.4527944
  13.1903849  12.5692570  84.5507698  71.4086425  24.6151822  17.1175878
  72.1228401  24.7403444  17.7424782  71.5915851  25.2405232  16.4163658
  18.0713970  19.5508468   0.0230976  18.4668313  20.0989754   0.7009019
  17.1290512  19.6807924   0.1295418  46.1278852  56.7629629  46.6852631
  46.6002070  55.9362272  46.5870186  45.2050102  56.5101126  46.7097638
  70.3714893  22.0251043  86.1774330  70.1950869  21.1007986  86.3528553
  71.3096699  22.1247610  86.3390425  53.7653484  24.7202540  25.9155635
  53.0925474  25.2380632  25.4734726  53.8021184  25.0814439  26.8012393
  57.6200776  52.2866913  43.2150427  57.3107803  52.0183382  42.3498528
  56.8284753  52.3221585  43.7520154  75.2949545  68.9715937   2.5098916
  76.1949075  69.1743768   2.7652254  75.3179388  68.9434037   1.5533829
  21.3296969  47.7342379  59.5311016  21.3368393  48.2317485  58.7133828
  21.2239749  46.8234202  59.2563911  75.4266064  50.5718780  63.7807020
  74.5491187  50.8653625  63.5355204  75.9446909  51.3756043  63.8236462
  58.9665844  67.3456766  59.7390939  59.1162883  67.1318435  60.6600152
  58.1009390  66.9850649  59.5471330   3.0543179  64.5578572  19.3664069
   2.1853218  64.7582037  19.0186440   2.9548217  63.7005627  19.7803857
  81.4785915  23.5902216  26.4704743  81.7392902  23.8964738  27.3390810
  82.1986820  23.0256559  26.1894636  85.0175418  70.6871942  73.6642333
  85.5943036  71.4009370  73.9365363  84.5787921  70.4132545  74.4696447
  67.4137894  20.3771022   6.4640757  66.6562894  19.9148444   6.1052677
  67.8747632  20.7139997   5.6958081  59.2114819  16.5640700  11.8494552
  59.2199935  16.4959210  12.8041882  60.0278264  17.0151783  11.6342469
  80.7587532  21.4100815  19.6505368  81.4734047  21.6685380  20.2325207
  80.9171625  21.9008544  18.8441372  70.9959728  68.8553226  48.8047694
  70.5170252  68.7849166  49.6305321  71.9151259  68.9145856  49.0653020
  33.5971354  33.1531696  64.6186141  33.5423227  33.2146344  65.5722647
  34.5356378  33.1126045  64.4347675   3.1664961  34.2530809  67.6302775
   3.6181121  34.8027967  68.2706581   2.3997991  34.7652904  67.3732777
  14.7909628  62.5378818  67.1120072  14.0628676  62.6261514  67.7270825
  14.7840391  63.3551699  66.6137862  15.9383945  53.2333503  34.9122132
  15.3781198  53.9351157  35.2436487  16.2209603  52.7620871  35.6959857
  71.0676040  13.0742091  63.9132392  70.7204575  12.5612982  63.1834149
  71.8664267  13.4724505  63.5675256  29.2993761  42.3122356  73.7156354
  29.9031093  42.8094821  73.1638347  29.8002842  42.1236289  74.5092036
  22.2080412  44.3950988   5.6523353  23.0368475  44.7356139   5.9890271
  21.5413282  44.9637817   6.0374656  46.5500441   1.5589146  10.0287069
  45.7626397   1.0642075  10.2556231  47.0171102   0.9958088   9.4114605
   8.4470027  48.5973632  43.1696644   8.9093265  48.6246508  42.3319629
   7.5726218  48.9327741  42.9717014   9.8177027  67.9836442  81.7756697
   9.3800740  67.4197399  82.4134196   9.1197963  68.5391855  81.4284922
  74.9287100  61.0892159  48.8699916  74.9382909  60.3072385  49.4219439
  74.1051212  61.0305102  48.3857531  57.1222026  50.1040036   1.7039429
  56.5114786  50.0221047   2.4364323  57.8422291  50.6311478   2.0502269
  35.0248907  29.4764644  77.0867435  35.3545293  29.7083188  77.9549680
  35.6233118  28.7966076  76.7770361  80.2420959   4.9658396  48.7731001
  80.3130997   4.5308341  47.9234175  79.4731768   5.5298231  48.6899262
   9.5143849  48.1190323  80.6488941   8.6536410  48.3292135  80.2867124
   9.9718566  47.6732508  79.9359913  29.7077479   3.7938505  25.4945707
  29.8165380   3.5978034  24.5639999  30.4912336   4.2919264  25.7275995
  21.0952157  59.7448309   2.6601890  20.4410371  60.2162136   2.1443590
  20.5824209  59.2086801   3.2650158  63.9477522  18.9820840  38.0148035
  64.2419776  19.0430582  38.9236188  63.5368873  18.1197308  37.9534132
  86.8550973  65.1264912  57.3578751  86.3516417  65.7137111  57.9217342
  86.5165814  64.2537779  57.5579008  73.6764913  41.1695052  29.7933525
  74.2856387  40.7216816  29.2063045  73.0950042  41.6562222  29.2092197
  31.1194229  31.9087562  63.6133619  31.9297896  32.3539595  63.8610142
  30.4733763  32.2159656  64.2493477  61.0211080   3.0233909  77.5096228
  60.4850219   2.4220763  76.9926467  60.5655235   3.8630261  77.4489009
  59.1212900  16.2706931  43.2727041  58.8898978  15.3418831  43.2715133
  58.6148181  16.6446262  42.5516686  85.2161072  17.8982366  23.8680107
  84.6773216  17.9881755  24.6540469  84.5851103  17.8366528  23.1508760
  61.7075811  36.9657341  49.6164449  61.7980427  37.4933353  48.8229176
  61.7894629  37.5949937  50.3330755  25.6857958  63.1069863  19.8261457
  25.9350535  62.1927727  19.9614823  25.6962779  63.4904417  20.7031200
  27.4444011  44.2756786  20.0998992  27.2440847  43.9849061  20.9895939
  27.5166284  43.4663306  19.5939634  51.1555648  27.6547237  64.6657713
  51.5368701  28.2623929  65.2994717  51.6587889  27.7976254  63.8641627
   6.5695745  24.0277274   4.1065110   6.3721951  23.5526770   3.2992934
   7.5152289  23.9292225   4.2172652  57.1276233  12.5533196  27.9209828
  57.2199063  12.4111593  28.8630583  57.2771815  11.6912050  27.5328815
  26.8962880  48.4369422   8.0477365  26.2101694  48.4539991   7.3805167
  27.0434617  49.3578113   8.2635413  30.8563412  49.6885536  81.7271080
  29.9501052  49.4639521  81.9381115  31.2896682  49.7599018  82.5776190
   2.7677460  49.6053977   8.4721056   3.0578457  48.8799599   7.9191012
   3.5772790  49.9827527   8.8163314  65.0366562  28.2093092  13.2297089
  65.5214393  28.8884156  13.6987843  65.6057643  27.4405155  13.2658185
  63.8948060  35.5571172  58.0871446  64.8503906  35.5094192  58.1156877
  63.6961417  36.4796154  58.2476480  24.3331380  39.4244575  28.1150814
  25.1454598  39.9186269  28.0048011  24.4625598  38.9281357  28.9232562
  50.3770118   8.2816085  32.4541601  50.7083539   8.4372907  33.3385849
  49.9817273   7.4108583  32.4963051  48.3773620  19.4164465  25.3625768
  47.9836260  19.3607769  24.4918847  49.1995205  18.9324261  25.2850435
  46.5898373  20.4046499  64.9281375  45.6837119  20.7015810  64.8444678
  46.5183313  19.5008692  65.2352193  76.3593768   7.6376322  45.8820450
  75.4908574   7.2365030  45.9136859  76.7134517   7.3755009  45.0322509
  83.0678992  27.0192104  33.2178588  83.9621002  26.6793580  33.1841439
  82.5391514  26.2742363  33.5036405   9.8385380  61.3670318  10.6464926
  10.5059971  61.9654152  10.3108327   9.2341517  61.9296437  11.1306588
  50.0965476  45.5404074  13.9170622  49.9088749  46.4770401  13.8559880
  49.9020532  45.3160012  14.8270324  27.9677791  60.7601634  66.6098437
  28.6467620  61.3124752  66.9973559  28.3832384  59.9034769  66.5112856
  10.2461937  18.0292920  86.1858408   9.6734958  18.7778262  86.3530098
   9.6637848  17.3559404  85.8342311  78.7052517  11.0239956  38.1674708
  78.3334197  10.7893616  39.0177176  79.1901855  11.8324918  38.3330156
   3.6805101   1.8010371   4.1354376   3.4763410   1.0129396   3.6320003
   3.4221056   2.5240305   3.5638264  56.8601115  40.6657238  31.9784672
  57.1588264  39.7667916  32.1160247  57.4609290  41.0201073  31.3229807
  51.2667127  34.8328354   8.2885341  51.7340505  34.6146824   9.0949066
  51.2190208  35.7888446   8.2904984  84.2763126  58.7730844  70.6144395
  83.6042329  58.1233178  70.4086629  85.1043413  58.3126740  70.4779749
  74.9296382  50.2905966  19.0823628  74.7745923  49.3683005  18.8784941
  74.6145938  50.7625331  18.3114836  84.2436943  51.8364181  80.2207937
  85.0533188  51.7894664  80.7292576  83.5591017  51.9830858  80.8735214
   2.1928079  59.0200572  22.1939879   3.1138755  58.8533796  21.9937756
   2.0223158  58.5056331  22.9829950   2.7128877  19.4048417  79.1084454
   1.8260325  19.5496192  79.4382320   3.0274180  20.2783904  78.8756040
  76.4072276  39.8181820  56.7907452  76.1502421  39.9895341  57.6967412
  75.6297990  39.4283522  56.3909085   8.7150123   9.0155610  84.2619985
   8.8263583   8.1528893  83.8624593   8.3146774   9.5479955  83.5746287
   7.4966283  56.6951492  71.6985382   7.8474769  55.9283890  72.1515458
   7.7647797  57.4371021  72.2406015  68.2181110  36.5202531  32.4025294
  67.4768837  35.9209669  32.3149508  68.2135480  37.0271136  31.5905544
  47.9142663  66.7819854  82.2331404  48.2067373  67.2853155  81.4733041
  48.1210030  65.8737246  82.0127905  26.6739235  19.0377139  77.8994760
  25.8328826  19.4583415  78.0782340  26.4753963  18.1014241  77.8860458
  16.9293635  57.1858618  36.2552107  16.2237681  57.7554862  35.9487877
  17.7221344  57.7135551  36.1588478  10.4867590  29.4844369  74.3110500
  11.0057897  29.9294487  73.6411222   9.7352763  30.0599814  74.4533671
  37.3592240  29.8064778  84.2591724  36.7051501  30.2729231  83.7387417
  38.1264768  29.7548894  83.6891781   8.3239680  57.8156756  57.2356807
   8.7491176  57.7019659  58.0857100   7.3899557  57.8635912  57.4395357
  76.1240107  12.6736299  74.4036569  76.5723327  13.4125014  74.8151276
  75.6217754  13.0658456  73.6894031  10.2030695  29.9747779  32.1544356
   9.8450733  30.8213606  31.8872872  11.1190588  30.1573942  32.3638316
  64.7571241  17.1767942  82.8305769  65.3881584  17.5820742  82.2357866
  64.2094345  17.9026598  83.1295538  65.0280179  63.0421622  44.8355608
  64.4765653  62.6765316  45.5272588  64.8439478  63.9813199  44.8538031
  22.8652616  22.1254306  19.9951631  22.3091339  22.7997077  20.3854248
  22.4711944  21.2989278  20.2741543  24.9618514  42.2125849  14.9580545
  24.0901297  42.3479128  15.3295642  25.5627383  42.4813901  15.6529721
  13.6647547   1.1212502  28.3806980  12.7985349   0.9028483  28.7244940
  13.9017124   1.9340746  28.8272396  40.6352335  12.5960625   3.6466459
  40.5955073  12.0390987   2.8691853  39.7573386  12.9708353   3.7179051
  11.6179606  38.6892394  70.3921427  10.7804309  38.6806615  69.9287830
  12.2577606  38.4139205  69.7355703  85.9563157  27.8090429  88.7563231
  86.8828815  27.5910707  88.8572975  85.7030847  28.1766367  89.6030702
  19.9457974  23.3985825   5.1494098  19.0036173  23.5485756   5.0717530
  20.0471650  22.4525587   5.0445516  21.8828467  58.7881455   7.2975975
  21.1832043  59.4410090   7.3199945  22.1531407  58.6953052   8.2111366
  83.0093397   4.9879367  53.2057925  83.9350681   4.7445226  53.2029006
  82.6491323   4.5691736  52.4240509  32.7726025   2.5822067  87.6680515
  32.9170605   1.6850611  87.9688729  32.0664587   2.5087701  87.0260235
  84.7430652  18.1942618  82.3576589  84.8731044  18.8516355  81.6741522
  83.7924390  18.1087564  82.4299814  66.2917586  52.2433994  65.5993253
  66.1330584  51.5618663  66.2524399  67.2004487  52.1098464  65.3297369
  67.5390848   3.3259761  85.6168977  68.3272939   2.8572746  85.8912648
  67.8046146   4.2451788  85.5887530  85.6434831  65.6948940  26.9223453
  85.9280987  66.1585730  26.1348000  84.7551392  66.0143668  27.0805038
  31.0022580  44.8411739  20.9818126  31.1552700  45.4338376  20.2458989
  30.9287135  45.4177068  21.7423603  50.4568629  63.9874945  55.5962771
  49.5101318  63.8735672  55.5128946  50.8302272  63.3083856  55.0344569
  65.8210975  70.9612243   4.6578063  66.5853448  70.8088124   4.1019929
  66.0498006  71.7351692   5.1725257  18.1481243  41.3559295  66.0390974
  18.1311309  41.5297012  66.9802384  19.0498881  41.0887702  65.8611092
  39.0167194  25.7726820   5.2124499  38.5747411  24.9236333   5.2106479
  38.3799566  26.3749905   4.8277559  10.8781105   5.5194939  79.2005585
  10.6091683   6.1310788  79.8860261  10.1464119   5.5145287  78.5834488
  53.1407248  65.4005094  20.4915754  53.1675725  65.4359656  19.5354092
  53.7926434  66.0422123  20.7734464  56.3101552  35.6409888   7.8093958
  57.0792889  35.8997862   7.3017651  56.6327516  35.5562511   8.7066042
  42.3443439  59.7512537  50.7133272  42.6817471  60.5858649  51.0386196
  42.6740944  59.6927483  49.8166257  54.5595351  41.4990610  48.9816976
  55.3362842  41.3634432  48.4390186  54.1901707  42.3249404  48.6690878
  58.2037356  31.7662920   5.8585837  59.1388389  31.5834555   5.9501511
  58.1633271  32.6905961   5.6131029   8.0507564  38.7646436  66.1781931
   8.6735706  38.0948431  65.8958785   7.2753267  38.2723407  66.4475971
  81.4278317  48.7789433  45.9833047  81.3773177  48.3741827  45.1173664
  81.6564349  48.0590083  46.5712384  84.0075075  49.5972456  22.1444569
  84.4887436  48.9252713  22.6272551  84.6741777  50.0364132  21.6163334
   7.9029335  54.0345400  55.7706599   7.3769813  54.8007940  55.5416166
   8.5906659  54.0085419  55.1053930  52.9749945  35.6568787  87.9591013
  52.4697250  35.9594169  87.2045119  52.7193546  34.7407554  88.0667962
   6.3143614  55.2383473  38.4095951   5.9546301  55.8854279  39.0163174
   7.1492760  54.9813334  38.8008664  46.2213787  69.8638708  69.1140644
  45.7146017  70.1132604  69.8868604  47.1184137  70.1260051  69.3210562
  61.6836265  70.3352156  50.2228072  60.7264712  70.3300972  50.2151051
  61.9313716  69.5631620  49.7140955  57.2811098  47.1215482  87.8922675
  58.1398315  46.7784423  87.6450690  56.6583776  46.4880643  87.5357081
  20.4515400  16.5578222  85.1882174  20.1210449  16.6021267  86.0854587
  19.7003179  16.2686377  84.6702701  51.7074388  51.9924832  68.8486645
  51.3075718  51.4886280  68.1398146  52.4206568  52.4729162  68.4282646
  43.9683373  58.1412988  17.6103030  44.0457877  58.8023667  18.2982147
  43.3159557  58.4981414  17.0075648   9.5417103  12.4185279  82.5175413
  10.3714684  12.5993402  82.9591748   9.7144375  11.6357890  81.9943616
  20.6014858  38.4372930  65.3169582  19.8117367  37.8977843  65.3551492
  20.9191214  38.4611687  66.2196040  77.3061986  51.5760595  88.5837959
  77.7504646  51.3079984  87.7794310  77.9599072  52.0890505  89.0589139
  26.7440072  61.2744914   6.6811630  26.8013801  60.5250573   6.0884669
  25.8096392  61.4788013   6.7191867  51.1171849  29.2049342  30.1425902
  51.7390376  28.8049664  29.5346783  50.6858287  28.4630493  30.5665837
  84.0613630  44.1084444  73.7916209  84.0552931  43.1862639  74.0480933
  83.8779222  44.0970007  72.8522326  28.8595743  34.2208805  73.3974472
  28.1820581  34.3343399  72.7308659  28.7829011  33.3045556  73.6633448
  30.1239058  21.5861293   4.8821522  29.9611225  20.6591328   4.7077648
  30.8488232  21.5885573   5.5072287  48.4436869  28.1380579  66.0378093
  49.0067437  27.5351684  65.5522961  48.5928042  28.9891977  65.6260365
  65.2105610   6.0523930  19.6807981  65.4639806   5.1366029  19.5653038
  64.5889987   6.2200693  18.9724360  61.2990798  27.4004854  67.5519976
  61.7027162  27.1701149  68.3888004  61.8742958  28.0720505  67.1854478
   0.3756746  66.1592365  46.5151851  -0.5034999  66.5236898  46.6174491
   0.7650985  66.2249342  47.3871166  11.4994095  31.7633929  64.8395352
  11.8704910  31.0001863  65.2823060  12.2081566  32.0851902  64.2824393
  84.7544298  47.9020967  11.8698089  83.9136288  48.3070325  11.6569417
  85.2643826  48.6057501  12.2711215  51.3360385  28.3129421   7.4204513
  51.5218791  27.3742507   7.4439795  51.8388614  28.6380056   6.6736350
   6.9607206  52.9402157  66.2899066   6.5001733  53.7687243  66.4229536
   7.8472867  53.1970341  66.0363781  79.7091675  31.0182542  59.4821280
  79.4226791  30.1676369  59.1495525  79.2512435  31.1155737  60.3170331
  22.0451710  61.2743347   4.9266964  21.5040359  60.6787114   4.4083939
  21.9527995  62.1218639   4.4915027   1.8998515   2.8899788  22.7420653
   2.3348713   2.2065578  23.2518940   1.0230298   2.5436568  22.5763046
  54.4049925  14.0984704  18.2710305  54.9344345  14.4138893  17.5386140
  53.5023832  14.2822158  18.0107116  10.7224229  40.9067982  77.8830236
  10.0809029  40.3079271  78.2651720  11.3875301  40.3337540  77.5015993
  64.6124528  23.4086274  61.0336413  63.9534587  24.0816072  61.2041019
  64.9384578  23.6094038  60.1563493  36.1507508  41.0567389  23.8334069
  36.9827082  41.0023861  23.3631682  36.0481455  41.9875081  24.0318327
  71.3283168  42.5193887  49.6175367  71.9060995  43.2203159  49.9193645
  71.5025452  42.4529744  48.6786728  30.4045158  19.2317072  83.0745232
  30.9476181  19.9724758  82.8052023  29.8905795  19.5662310  83.8095029
   7.0774955  30.8870791  64.2604265   6.2640789  30.6000807  63.8454359
   6.8258909  31.6531452  64.7762459   0.6764286  40.0709620  77.1644489
   0.4262120  39.1517708  77.0711155   1.6319216  40.0547167  77.2192308
  49.0500710  26.2866313   5.5967466  49.4557544  27.1532499   5.5717461
  49.5787462  25.7926796   6.2234412  66.1746665  11.8968157  19.1756085
  66.6328858  11.2975899  19.7648413  65.4588669  11.3751535  18.8126603
  55.4235115  13.7648693  13.6364548  54.8944711  13.0081154  13.3841224
  55.9859739  13.9271315  12.8791314  12.2895705  34.2764049  75.3662843
  13.0238695  33.8026143  75.7568728  12.4927532  34.3044130  74.4313168
  34.9164941  64.8609078  44.8907899  35.2409010  64.0812343  45.3414574
  34.8584262  65.5268205  45.5759324  41.9398695  22.9405158  84.7595546
  41.7662184  22.0859021  84.3649504  41.3425318  22.9854248  85.5061487
   1.5267539  24.7601008   4.9296595   0.9631668  25.2940646   5.4895560
   2.4162109  25.0305908   5.1575481  37.8567569  68.7050059  26.5132710
  37.7116450  68.2622639  27.3494253  36.9907335  69.0216959  26.2564776
  21.0003404  62.1694649  52.9234164  21.5141290  61.3939487  53.1488662
  20.1070976  61.8423448  52.8169196  57.3377930  64.4410475  41.8081470
  56.7218093  63.7961427  41.4604493  58.0911196  63.9235878  42.0926930
  50.8047325  11.3134608  89.3639403  49.9449138  11.1064560  88.9977537
  51.3914719  11.3216578  88.6076985  68.2256334  62.9850180   3.5146080
  67.4977614  63.1030322   2.9042747  68.1543142  63.7244366   4.1182682
  31.9584475  30.5230594  79.9706707  31.2134394  30.0588240  79.5889899
  31.6871538  31.4409048  79.9845051  69.4064764  16.3809742  67.7500355
  69.3838897  17.1921613  68.2576743  68.5622043  16.3566925  67.2996503
  80.6347727  70.1635110  52.7152450  81.2990056  70.7535637  52.3590650
  79.8428773  70.3656404  52.2169708  46.9729656  37.5054389  31.3688153
  47.4849004  37.7881938  32.1265779  47.4429724  37.8627733  30.6153980
  22.5283288  26.8677285  28.8449418  22.0166862  27.3778265  29.4728380
  23.3201317  27.3866350  28.7034635  67.0386592  59.1102922  73.7662991
  66.7987015  58.8871792  74.6656727  66.3041550  59.6333791  73.4451833
  71.7559060  17.7287051  23.5445035  72.1086919  18.4283153  22.9946676
  70.9539919  17.4553023  23.0990638  72.8810115  62.2678600  80.8558506
  73.6614493  61.9655448  81.3203441  72.5590259  63.0009388  81.3804005
  78.5167447  70.1533184  84.4234968  77.9458757  69.4811154  84.7956306
  78.2072934  70.9718867  84.8113339  60.1700704  24.5607688  35.7752457
  60.3683298  23.7578589  35.2933114  59.2179159  24.6431869  35.7219453
  48.2961716  23.4759745  73.5545119  48.3209441  22.6596780  73.0552343
  49.1623391  23.5367103  73.9573727  63.2169852  61.0421571  63.2824427
  62.9537651  61.7403726  62.6829077  63.3713063  61.4874001  64.1156147
   7.5661357  29.0699321  13.7786478   8.4406539  28.8127520  14.0707237
   7.0696388  29.1920751  14.5878472  61.3021124  67.6593997  81.1719360
  61.1910161  68.4979439  81.6199683  62.1402600  67.7402505  80.7167399
  36.7176107  48.9539864   2.0804483  37.4833065  49.3685071   1.6828122
  37.0232358  48.0845762   2.3391973  20.9326668  25.1505108  73.3780735
  20.9682982  25.0562685  74.3299562  21.8490617  25.2157458  73.1093794
   6.9380119  25.6212058   7.8705014   6.1366427  26.1439353   7.8423387
   6.6752403  24.7619978   7.5404341  74.9752188  65.9446140   7.6358841
  74.4258481  66.6503808   7.9769367  75.2357769  65.4478056   8.4114630
  81.0049542  19.8274403  11.0604485  81.9130703  20.1272741  11.0197450
  80.5622936  20.3086074  10.3613336  15.8356624   7.7289609  68.2117505
  15.6407511   6.8295033  68.4748424  15.5188942   7.7888676  67.3104731
  57.2038753  65.6206321  57.1698564  57.3191993  65.0566241  56.4051165
  56.2921320  65.4884553  57.4296356  50.8186110   7.4543336  83.7947485
  50.9900029   6.9181344  83.0205734  51.2918640   8.2700248  83.6307023
  67.2670158  23.3110787  87.1662944  67.7500816  23.4493662  87.9810065
  67.8216466  23.7000132  86.4900205   3.4496544  48.9730754  69.2518849
   3.3548711  49.8934992  69.0067972   4.3260855  48.7339556  68.9503522
  64.2409813  71.5351501   8.0376952  63.6350970  71.2574690   7.3506514
  63.6912968  71.6380765   8.8145382  41.9609552  33.9214373  20.5751875
  41.6254889  34.4872615  21.2705558  42.8006897  33.6048969  20.9081740
  52.4637358  51.5058346  53.6083997  51.8289564  51.5207736  54.3246844
  52.4225085  52.3855745  53.2334464  54.0840643  68.3430004  37.2704955
  53.9648401  69.0733597  37.8776139  53.5218208  67.6498213  37.6163524
  22.0160689  49.4524557  51.7110543  22.7651223  50.0346389  51.8383865
  22.1123276  48.7860173  52.3913675  17.9872826  38.7386395  84.5057668
  17.9861526  37.9784422  83.9241050  17.1660604  38.6689694  84.9925646
  80.9450384  56.1046421  56.3162132  80.2105231  56.6911789  56.1353993
  80.7945352  55.3498566  55.7471090  25.4476812  45.2259120   6.2591788
  25.6060427  45.4932474   7.1645435  25.9006267  44.3869273   6.1744621
  54.0560219  52.6733718  87.7707017  54.6414354  52.7452021  87.0168031
  54.4498006  53.2395150  88.4345180  78.7507124  34.6484627  33.7975724
  77.8253129  34.8676291  33.9063549  78.9162134  34.7655356  32.8620858
  14.1666191  32.9817648  48.8561887  14.2566426  33.9076176  49.0818525
  13.4789714  32.6590464  49.4386193  12.9079869  68.1648513  36.2928644
  12.3129213  67.9982873  37.0238809  12.4399447  68.7914598  35.7410219
  16.3741331  13.6795636  18.9970918  15.5021208  13.8336437  19.3605279
  16.8340495  13.1885178  19.6779609  60.3357479  44.2920108  19.8834197
  59.7916568  44.0035883  20.6162288  59.9486211  43.8693556  19.1167860
  30.4623693  70.6274276  12.4566415  29.5455523  70.4997212  12.2129830
  30.5066143  71.5358876  12.7549276  54.3185077  71.5246241  71.1179633
  53.9629652  71.2785130  70.2640015  53.5534515  71.5721826  71.6912512
  10.1708990  61.4107278  33.6198482   9.9883830  62.0912019  34.2678257
   9.3380235  61.2828172  33.1657677  15.9840850  39.7513397  68.8110385
  16.3873174  38.9049991  69.0042819  16.6923387  40.3853440  68.9234981
  73.2806560  67.8690679  58.8795916  73.1068883  66.9280866  58.8552823
  74.2349683  67.9356255  58.9126052  58.9359022  15.2144679  70.2676623
  59.2248228  14.4485928  69.7714847  58.0529833  14.9902795  70.5616447
  15.3236584  36.7721484  71.9843125  15.5437814  35.8943418  72.2961351
  16.1507883  37.2527209  72.0180458  85.1914924  22.4890223  38.1081552
  85.8655516  23.0756119  38.4513586  84.9269960  22.8873000  37.2789095
  69.7413469  47.8319360  51.9977855  69.4271776  48.2384832  51.1901662
  70.1600674  47.0205884  51.7103485  45.9613958  43.8935591  25.0708987
  45.7161406  44.7271549  25.4723956  46.9032775  43.9692616  24.9180593
  41.9515500  58.2746128  15.6285866  42.4887234  58.3012390  14.8367737
  41.4680642  57.4511463  15.5624336   9.5105504  62.4495020  28.7488062
   9.0599342  62.9728160  28.0859944  10.3085434  62.1483162  28.3143801
  77.5090851  27.9338319  44.4377616  77.4763775  28.6288703  43.7804309
  77.2436213  28.3614856  45.2519318  83.0267080  11.6993329  48.6657297
  83.9348603  11.5402665  48.4084573  82.5341577  11.6539600  47.8462376
  22.5339538  35.9799991  65.5662228  21.8617040  35.4092228  65.1940312
  22.1063466  36.8325493  65.6471060  36.1074052  70.6262596  76.2732114
  36.7974360  70.9224972  76.8667875  36.2582928  69.6855295  76.1810612
  35.3909169  29.7460227  21.0418902  35.6778413  29.9934557  21.9209142
  35.8082963  30.3855643  20.4648176  39.4615937   3.2542902  88.1615808
  40.0547098   3.9463751  87.8692392  39.1057069   2.8863676  87.3527487
  58.8607242   5.1660823   5.7418207  59.6104363   5.0005740   5.1701822
  58.1380581   5.3502596   5.1417670  71.2294489  30.3423118  86.3661985
  71.8589594  30.7155271  86.9831740  71.1690139  30.9903124  85.6642906
  66.1145361  17.5984563  32.6915582  66.9481282  17.6745156  32.2272619
  65.6358639  18.3932397  32.4561352  65.9002267  15.4958450  16.6803312
  65.4864782  15.0871718  15.9200482  65.5197239  15.0425185  17.4326241
  66.5861839  43.7845799  56.8199803  66.5759365  44.3153167  56.0234595
  65.6622975  43.6640671  57.0393939   0.9012175  29.9142383  83.8995097
   0.6633792  29.0161190  84.1298281   0.0719954  30.3922276  83.9117103
  67.2635070  46.0183968  46.9052933  67.3284536  45.3017663  46.2740608
  68.0844332  45.9804108  47.3960775  49.2243749  34.3816186   4.7860184
  49.0662813  34.6475691   5.6918377  50.1775573  34.3844311   4.6984551
  72.0123327   4.9315588  59.1433942  71.4532785   4.3355325  59.6418347
  72.7354928   4.3833044  58.8389465  22.7022910  42.2716513  55.7225939
  22.1731182  42.4440572  56.5013649  23.4538086  41.7764313  56.0484932
  39.8426718  12.6545927  88.8027160  39.9132701  12.0636234  89.5523846
  40.3146504  13.4421557  89.0732943  48.1728607  28.7834139   4.2951456
  48.1725658  29.4625797   4.9696569  47.5665972  29.1072237   3.6289447
  72.7620612   0.4291467   2.9940625  72.7464816  -0.2708073   2.3413348
  73.1243756   0.0171711   3.7784324  59.3780151  12.3527806  69.8919412
  59.9499538  11.6931479  70.2843729  58.7071431  11.8462758  69.4341034
  14.0081702   7.3888837  19.7998501  13.7667107   7.6931778  18.9250162
  14.2229249   8.1882117  20.2806692  84.5938013  15.4045331  75.3773020
  84.3780944  16.2869358  75.0755275  84.8797957  14.9446981  74.5880044
  70.5116782   9.3700419  87.1306349  71.1827278   9.2842578  87.8078095
  70.2533404  10.2910897  87.1647593  55.4351898  56.6757382   3.9090106
  56.1821195  57.1697543   3.5709634  55.0416979  57.2538484   4.5626043
  37.3735995   5.2501958  80.3296833  37.4755526   5.4169865  81.2667096
  36.9965680   4.3716487  80.2824192  83.9722219  13.8925945  58.4221535
  83.4763981  13.8392144  57.6051216  83.3742806  14.3162734  59.0379410
  78.7248962  32.5239440  80.3329918  78.0678491  32.9020953  79.7485926
  79.0986778  33.2762536  80.7918485  60.8616884  12.2189714  44.8770452
  61.5997936  12.8247469  44.9438934  61.1517785  11.4355004  45.3442203
  79.8742463  44.9818605  20.9777566  79.6025214  45.7419532  21.4922043
  79.5588861  44.2290508  21.4778139  51.5243069  59.8597621  47.1215705
  51.5056064  59.5596433  48.0303118  51.8851464  59.1202823  46.6324934
  86.1295925  42.6997129  26.7712577  85.6659137  43.1308962  27.4891120
  87.0347193  42.6344224  27.0757481   7.9646946   9.9768772  81.8951363
   8.8833154   9.9215045  81.6318844   7.4794538   9.9893400  81.0701405
  61.5326003  44.1674965   3.4694215  61.7040983  44.0170697   2.5398021
  62.1409840  43.5838651   3.9227156  73.3276305  27.3767288  57.2220832
  73.1123586  28.2616014  57.5168549  73.0913613  26.8144134  57.9597892
  53.2239486   8.8394899  18.5368956  52.4291620   8.9567709  19.0572717
  53.6957836   9.6670456  18.6304644   1.2280229  39.0126012  13.5527246
   0.6513042  39.3126822  14.2552762   1.5742152  38.1774783  13.8672915
  37.9417920  64.4915556  47.1582053  38.1383391  64.0893450  46.3121393
  38.2887347  65.3808228  47.0870271  86.5825200  54.1184232  30.2096270
  85.6991625  53.8481026  30.4603023  86.7670662  54.8770240  30.7634315
  79.5559846  24.2830321  10.9583613  80.1598691  24.8149382  10.4400648
  78.9186302  23.9566597  10.3231509  26.8697351  40.8534304   1.6298821
  26.4416972  40.0880182   1.2462683  26.2812420  41.5817015   1.4310634
  62.4238832  35.8586151  63.3750379  62.8733789  35.3481169  64.0485191
  61.5047748  35.8509784  63.6422704  40.8598916  66.2568935  86.0580841
  40.7503729  65.3774446  85.6964114  39.9670227  66.5646977  86.2138837
  24.6296055  58.9701940  87.1600632  24.6867700  59.9055909  87.3549906
  23.7184237  58.7423272  87.3446066  42.4090508  19.8383119  45.7431844
  42.3646095  19.6118903  46.6721570  42.0874880  19.0583862  45.2909177
  72.2503968  41.2634134  63.8979920  72.7436021  40.4514026  63.7812922
  71.3568191  41.0404951  63.6371124  14.3060623  66.8646723  39.7124869
  14.2266051  67.8122869  39.6031938  15.2210855  66.6754967  39.5046965
   2.2693252  31.8727112  40.1449237   3.1058083  32.3181848  40.0104583
   1.6325095  32.5814600  40.2364264   2.5311882  56.8708729  68.6069735
   1.7990689  57.4724574  68.4715875   3.1882560  57.3930081  69.0672653
  48.2654551  66.9078299  68.7330048  48.7845950  66.2286210  69.1635868
  48.2242777  67.6191252  69.3722194  32.0871693  48.5356838  53.8756535
  31.4772900  47.8576308  54.1663824  32.7454458  48.0632141  53.3660691
  73.6966096  49.0862517  22.5290887  73.5210542  48.1673711  22.7317477
  74.1648542  49.4154950  23.2962768  15.7863153  28.6841224  71.7290952
  15.9908292  28.9341106  70.8280337  16.6259952  28.4103153  72.0981469
  78.4289901   4.5452707  69.2633214  78.6925796   3.8900229  68.6172542
  77.5417436   4.2895337  69.5155595  40.1689462  46.6900505  14.6686024
  39.7996411  47.4887815  14.2919402  41.0108940  46.5835264  14.2258740
  65.9096147  11.0898518  54.5742493  65.4948114  10.3540259  54.1239934
  66.6121303  10.6911482  55.0878047  55.5363618  63.8530113  34.0579864
  54.8198426  64.4327294  34.3163642  56.2316483  64.0351474  34.6901533
  48.8999692  43.0876632  73.0849198  49.2092542  42.1887038  72.9733554
  48.2168421  43.0248184  73.7524674  11.2510108  19.3356051  83.9634197
  12.0517020  18.9137984  83.6516433  10.9807599  18.8097255  84.7161792
  11.9279833   2.3082322  52.3407256  12.4321792   1.4992967  52.2533090
  12.3086971   2.7467049  53.1016662  44.6485254  54.6357940  38.8216689
  45.5908849  54.7820256  38.7391662  44.5696940  53.9503179  39.4850994
  33.5237994   8.8328512   9.6498152  33.5946619   7.9308808   9.9623210
  32.7185365   8.8445190   9.1324688   0.3808076   1.1964360  56.8434477
   1.2827085   0.9054843  56.7087122  -0.0497984   0.4536396  57.2666071
  19.7784446  51.1825991  61.4506403  19.9095701  50.2389246  61.5429241
  20.5264251  51.4787524  60.9319397  76.9352093  60.0510908  39.9471883
  76.2407378  60.7027614  39.8509253  77.4140465  60.3251191  40.7294001
  76.6896376  46.9574917  73.6900680  77.1866191  47.4760466  74.3227938
  75.7999026  47.3069032  73.7402195  31.7542061  37.5553984  14.2861775
  32.7099694  37.5558818  14.2337549  31.5160730  38.4816301  14.3264181
  20.9407493  55.3195806  35.2576353  21.1733585  54.6738930  35.9248776
  20.5466054  54.8048895  34.5533801  38.3836381  32.2102409  24.6786554
  39.1548967  31.7932872  25.0627670  38.6655311  32.4748459  23.8030114
  62.3339858  57.1938354  29.5858600  62.3008503  57.1274589  30.5401808
  62.6825773  56.3497741  29.2990217  41.9370244   2.4147472  19.7137474
  41.4257343   1.9082102  19.0826892  42.8162151   2.0392667  19.6661035
  54.9038482  57.7133018  55.7868532  54.0061130  57.4736320  56.0167700
  55.4215553  57.4655670  56.5529072  63.2189084  20.2055700  26.9738449
  62.3587731  19.7857301  26.9854020  63.0494680  21.0898274  26.6488670
  49.4495236  56.6018931  84.2938907  49.8311361  57.2836502  83.7408889
  49.3438821  55.8509599  83.7097922  72.1340657  51.3979961  68.6987591
  72.6876571  51.5741158  69.4595154  72.7397827  51.3938139  67.9575969
  77.4844765  33.3636858  43.8535332  78.4134052  33.5942782  43.8658016
  77.1734639  33.6677238  43.0008528  65.9945084   9.3202951  81.8196582
  66.5790343   9.6671044  81.1456518  66.5640346   8.7990888  82.3855344
  16.1781600  66.1307310   0.2825811  15.9420349  66.6101082   1.0767311
  15.4039312  65.6052592   0.0808858  34.4990973  42.5496651  26.5337250
  35.0122004  41.8436442  26.9267791  33.5886940  42.2792103  26.6531064
  10.3170960  38.4324733  27.9585586  11.1551628  38.6422181  28.3707274
   9.6749339  38.5213817  28.6627992  11.1855845  18.5677117  28.4944164
  10.8707375  19.2740718  27.9303609  11.1070756  18.9170292  29.3821357
  10.7276762  37.7099262  58.5349330  10.4111853  36.9545595  59.0303988
  11.0116004  37.3447876  57.6969039  75.4091405  35.6183476  30.7012491
  74.5531297  35.2699546  30.4520511  75.3966316  36.5254809  30.3959877
  14.5722678  30.4343336   1.3901829  14.3901594  31.3575610   1.5654525
  14.8685247  30.0848912   2.2306315  41.8233992  43.0328721  84.8186429
  40.9828343  42.7340243  85.1655902  41.6125863  43.3927469  83.9570862
  82.1055551  38.8550459  23.1606861  82.5674490  38.5784723  22.3692363
  82.7359159  38.7148291  23.8672385  71.6448708  13.8337740  53.9905907
  72.2357189  13.2347958  53.5341310  72.0467028  14.6957212  53.8819168
  60.0718598  60.0580250  68.4865445  60.5409293  60.8721622  68.6692635
  59.1467783  60.2936371  68.5568507  17.4750288  13.1524368  71.6945486
  17.8634459  13.9815038  71.4152424  18.1302850  12.4925386  71.4678210
  24.7981593   1.8663255  55.8856355  24.0856258   2.4597146  56.1231588
  25.0986352   2.1819195  55.0333758  23.2280644  32.7183684   1.0918033
  23.4892348  33.1751721   0.2922083  22.3094512  32.4907193   0.9484246
  25.0570969  63.8971370  51.3518792  25.0941182  64.2437514  50.4604087
  25.5419025  63.0729206  51.3087185  60.9730565  10.3140069  57.8116478
  61.5576865   9.6202851  57.5063781  60.1669973   9.8583822  58.0543545
  41.7774385  28.7852828  81.2464433  41.3766314  27.9721247  80.9392636
  41.9734127  29.2728573  80.4463826  74.6443406  10.4037913  18.4427624
  75.1263131   9.5772760  18.4711656  74.3160599  10.4588994  17.5453067
  75.8713989  68.8568447  50.9549316  75.9768949  69.7968524  51.1015197
  75.6333644  68.5058482  51.8130533  17.0583152  43.7881792   9.8573539
  16.8644820  44.4251326  10.5450682  17.4655444  44.3037596   9.1612411
  22.3390128  36.1525385  10.6431122  22.6084538  35.8849123  11.5217529
  21.5874669  36.7274200  10.7877560  36.8169410  64.8922189  86.6257904
  37.0767962  65.7027522  86.1879058  36.1021838  65.1524354  87.2068596
  50.5390486  44.3955174  47.7489274  51.2809415  44.3129887  47.1497481
  50.6581147  43.6831552  48.3770955  43.2779530  68.7827628  77.3854944
  42.5201491  69.3174867  77.6222123  42.9897022  68.2838958  76.6211156
  73.1486150  33.8741954  59.4332620  72.6815367  34.6117203  59.0406721
  73.8183468  33.6445859  58.7890799  21.6930796  71.5949318  26.3534776
  21.7387456  70.8285147  26.9250994  20.8264960  71.5418256  25.9504337
  74.7919687  67.2477610  44.3870218  75.3701851  66.4859852  44.3470816
  74.1180207  67.0038990  45.0214957  83.8819734  41.1468967  26.1847193
  84.0828301  41.1780686  27.1200891  84.6766959  41.4675146  25.7582781
  82.0397932   6.7954068  34.9510430  82.0994280   7.3842569  35.7033269
  82.8143190   6.9979639  34.4263408  71.3215243  15.6192794  36.6570083
  70.5516059  15.8873690  37.1585913  71.1843966  15.9962955  35.7879360
  43.9493802  18.0731569  12.3656617  44.3104866  17.9565858  13.2444366
  44.3799418  17.4000909  11.8385651  47.7091871  69.0349776  12.2472677
  47.0133032  68.6167422  11.7402603  48.4664278  68.4605355  12.1339777
   0.7925822  20.5228115   1.8913095   0.8573086  21.1676440   2.5957479
   1.5691170  20.6770521   1.3533175  10.2731757   0.4268913  50.1230235
  10.0566990  -0.1426276  50.8612768   9.5313051   1.0283497  50.0589311
  13.2846738  59.0615190   1.1786031  12.4551437  58.9978541   1.6519511
  13.0538994  58.8864263   0.2662887  24.5666667  40.7785354  18.0735536
  23.8938638  41.1809023  18.6227977  24.1572799  40.7004746  17.2118455
  28.9148600  25.7687788  87.8887593  28.8409183  25.4921686  88.8021329
  28.0657900  26.1626407  87.6882980  21.0465026  63.8738702  43.1085729
  21.9215797  64.2587638  43.1568303  20.8695056  63.7981964  42.1709284
  73.0618564  25.4240184  28.2289779  73.6055104  26.2100388  28.1756489
  73.0980552  25.1698726  29.1511121  47.5829439  38.7710089  43.5635174
  47.2562110  37.9701629  43.9735456  48.1170583  38.4642354  42.8308211
  63.5628803   2.8269490  65.2667196  63.0223950   2.2272141  65.7809429
  62.9504586   3.2380866  64.6566890  74.0220921   9.2209018  74.2278571
  74.0849247  10.0410105  74.7174546  73.3401504   8.7238661  74.6796787
  67.0060139  52.6884317  71.3870160  67.5863532  52.9683699  72.0948809
  66.2609441  53.2872537  71.4371662  58.5631723  62.8483767  22.9901431
  58.4958257  63.2067466  23.8751670  57.6668808  62.6005720  22.7632373
  85.1993157   2.2555930  65.5733113  86.0316248   1.9610858  65.9431206
  85.4017284   3.0998081  65.1701218  39.7598212  38.3442888  55.8027920
  40.6375101  38.5742700  56.1077551  39.9092630  37.7289759  55.0849556
  24.2865957  14.2550788  76.2792417  24.9121441  13.5489720  76.1169640
  24.5209765  14.9330526  75.6454839  45.1638652  69.4706122  86.2326210
  44.6396414  69.5443899  85.4351387  45.5779600  68.6100207  86.1682808
  35.7671790  70.9411330  56.0911608  36.1276859  70.2013958  55.6022278
  36.0556306  71.7132780  55.6045196  13.4693409  66.9213820  87.3681459
  13.2920913  67.2577704  86.4897056  14.1242172  67.5205460  87.7264354
  56.8810414  11.9682819  38.4237408  57.3859995  12.0968482  37.6207963
  56.1800875  12.6181045  38.3724965  12.4041947  19.7772735   1.6325793
  12.5380640  18.9364521   1.1951664  11.6454444  19.6347522   2.1984571
  46.8128051  12.2119365  13.7053721  47.1825365  11.4572863  14.1636664
  46.9761663  12.0333580  12.7792757  72.3719894  21.9548205  20.1904170
  72.5702450  22.6105658  20.8589412  73.2039228  21.8146866  19.7382211
  50.3843027  14.8934052   8.7129161  50.6370184  15.8148361   8.6551949
  50.6628767  14.5159267   7.8785671   4.4426085  62.6198975  63.7836824
   4.3328848  62.7697131  64.7226967   4.7797083  63.4498993  63.4464990
  79.4831690  63.2757992   2.1703555  79.6614107  62.8972559   1.3094451
  78.6147677  62.9462994   2.4017446  65.4094686  16.5808525   2.5941678
  66.2270868  16.0857851   2.5427809  65.6862592  17.4868276   2.7313822
  78.4096618  38.3236448  32.2654156  78.3597665  37.3860235  32.0793816
  77.9107604  38.7347666  31.5595062   2.3360661  67.8260870  71.0700011
   2.9563123  67.3892297  71.6536811   1.6633121  68.1760812  71.6540713
  72.4337790  50.2026203  14.0905426  72.4596011  50.9682859  13.5166774
  72.0696573  49.5060384  13.5442635  71.1754455  39.9314809  57.6883874
  71.3119453  40.7632362  58.1420203  70.8174929  40.1794855  56.8359817
  10.7313241  48.0228664  55.9191220  10.3521201  47.8684632  56.7843364
  11.5667990  48.4546540  56.0973717   9.4684406  37.5322109  63.5276627
   8.5300383  37.6921411  63.6279392   9.5431111  36.5804679  63.4580828
  38.0628228  26.5200970  73.9868637  38.4060645  26.3534264  73.1090039
  38.4600161  25.8411010  74.5322385  83.3609593  45.4447195  46.2746374
  83.3621883  44.5083803  46.4733816  82.8045765  45.5243794  45.4998314
   3.7750667  59.9929146   4.8780069   4.4778785  60.4165383   5.3707853
   3.5646597  59.2095682   5.3862679  82.2726865  63.3366497   1.4286217
  82.0938225  63.0976286   2.3380767  81.9338607  64.2278792   1.3441296
  35.7195624  13.4743200  85.0028069  35.7197347  13.3893851  85.9562312
  34.8547335  13.8274283  84.7939593  73.4340765  17.0850953   6.0706283
  72.9929950  17.0206997   5.2235557  72.7226888  17.0944409   6.7109970
  66.8442113  22.8261465  71.1880016  66.0942857  23.3264796  70.8662715
  67.6052075  23.2615761  70.8039214  72.4986847  17.2795856  26.3346493
  71.6669303  17.4996969  26.7541341  72.4076436  17.6024909  25.4381697
  15.1631441  37.0773770  26.0927173  15.2664172  36.6385684  25.2483160
  14.2942495  37.4767092  26.0504351  42.3527998  50.4159631  88.0955056
  42.2976378  50.5420527  89.0427598  43.2091380  50.0112491  87.9572185
  56.1942524  45.2930736  40.6370203  56.9720304  44.7648152  40.4574757
  56.4790265  46.1954443  40.4925811  19.9248031  60.4359174  83.1329510
  20.1931687  61.2985495  83.4493016  20.4825158  60.2758289  82.3716625
  54.4819986  56.6907151  74.6862044  53.6809445  57.1308346  74.4018825
  54.9468200  57.3492885  75.2023961  17.7444045  58.4183882   0.3531017
  16.9698996  58.3960190   0.9151281  18.2305638  59.1892300   0.6458198
  77.3382194  27.4448246  23.4919629  77.9737159  27.8159660  24.1040332
  77.3122429  26.5130086  23.7093934  23.1582600  61.6564250  26.4483748
  24.0474598  61.4772888  26.1426530  22.6005192  61.1061632  25.8984938
  20.4681232  68.0532799  23.6236880  20.6381506  67.8691057  24.5474858
  19.6654922  67.5702609  23.4269447  60.6162018  42.3470296  86.5137638
  60.8462823  41.6041585  85.9556980  61.4440779  42.6099387  86.9159228
  10.9494980  14.2756227  70.5700287  11.5095171  14.4948509  71.3147094
  10.1217529  14.7197644  70.7538981  23.4547937  51.4244653  44.6381336
  23.0295215  52.1950928  44.2619572  23.3857145  50.7560772  43.9564318
  16.8812967  38.0219302  18.7731058  17.4900483  37.2975356  18.6285176
  17.3239563  38.5833752  19.4095520  25.0249839  13.4694579  48.0475679
  24.2179867  13.1264747  47.6637060  25.7068147  12.8675137  47.7492362
  23.5008451  68.1358916  15.9997429  24.4479773  68.1891190  16.1275685
  23.1394057  68.1316649  16.8860699  37.4276869  56.9555319  42.6510419
  38.1716439  57.5490312  42.5484824  36.8858830  57.3649704  43.3256088
  29.7671678  54.3495228  52.5804626  30.4998564  54.0079166  53.0930097
  29.0057604  53.8641386  52.8980990  74.9539802  57.0726164   9.6580235
  74.5186164  56.2247037   9.7459686  75.5444934  57.1177935  10.4100109
  62.8976340  52.3992817  50.5105060  62.7452296  53.1773604  49.9742240
  62.2532912  51.7636838  50.1989463   7.9747465   5.7832355  30.1192121
   7.5426967   5.1781530  30.7220720   8.9098035   5.6434307  30.2687279
  59.9019322  35.8874780  42.7145115  60.7407619  36.1507533  42.3359844
  59.3785478  36.6889080  42.7177530  82.0835852  20.0285176  25.1130385
  82.4089525  19.1320168  25.0314650  81.2919833  19.9485273  25.6452037
  76.2937465  69.5900380  45.2414754  76.1101052  68.6906976  44.9700078
  77.0251925  69.8628004  44.6875628  82.6269339  52.4351874  26.7366910
  82.5744710  52.9950309  25.9620590  82.4419461  51.5550302  26.4090714
  30.4948743  53.7342960  71.6610115  30.1314330  54.4396316  72.1964029
  30.6702663  53.0278188  72.2825897  80.7462867  33.1758965  73.4382221
  81.3744790  33.7843235  73.8273530  81.2512385  32.3779651  73.2815025
  12.6463720  62.4982870  10.5173729  13.2507689  63.0886641  10.0674940
  13.1967727  61.7746674  10.8168150  47.9144432   8.8054858  68.4715876
  47.9468174   8.0831252  69.0987869  47.4049997   8.4625327  67.7373653
  78.9161629   9.5657454  57.0457783  79.2662945  10.4512528  57.1433300
  78.0928086   9.6845614  56.5722783  29.4395220  53.1385104   9.1050102
  29.0413694  52.5822941   8.4354359  29.3841684  52.6222704   9.9091644
  60.5318996  32.1581673  63.0884204  61.3333318  32.4800298  62.6756942
  60.3773610  32.7621009  63.8147907  54.6391869  17.8962912  72.1615345
  54.2472331  17.1386847  71.7272115  54.7110408  17.6353717  73.0796794
  59.8280939  63.6302164  82.7951270  58.9724493  63.8700045  82.4393099
  60.4327521  63.7435702  82.0617980  21.0938237  66.0476778  75.9099844
  20.9282822  66.7455106  75.2760623  20.7913619  65.2511392  75.4737791
  32.5933410  46.9290404  56.5482384  31.7080356  47.0117453  56.1938009
  32.6441133  46.0244918  56.8571817  69.3984094  11.2656625  11.1500681
  69.0320873  10.4680583  10.7681421  68.9167174  11.9767058  10.7274311
  72.5129988  28.0019153  73.1267717  72.2487095  27.8108435  74.0267020
  73.4084685  27.6695315  73.0644261  46.2261811  22.8037702  27.0335775
  45.6295390  23.5348116  27.1942894  45.6549310  22.0386333  26.9667140
  17.0111046  45.7232211  11.6319630  16.7919420  46.4612370  12.2007619
  17.6915982  45.2475429  12.1082933  61.0442977  21.5654845  59.8463622
  60.2796039  22.1183685  60.0069687  61.2638332  21.7212932  58.9277983
  83.9399054  60.1295592  28.8416219  84.1449873  60.9727678  28.4376759
  84.7886910  59.7830733  29.1168353  15.4340962  67.7277061  13.3884944
  15.8564149  68.3194923  14.0111241  15.6195028  68.1102912  12.5308902
  47.3871808  42.0179487  19.4994843  48.0258683  42.2095895  18.8127647
  46.6748219  41.5680178  19.0452388  73.3176522  63.3422645  54.5452573
  74.0199464  63.1667734  53.9189845  73.6450157  62.9960589  55.3754421
  84.4379222  62.4760501  40.5975780  83.7265637  61.8718559  40.8100638
  84.1448732  63.3207422  40.9394104  59.2379682  71.1098271  48.7004155
  58.8079638  71.8691781  49.0937524  58.5213729  70.5111434  48.4899375
  68.4909233  49.5636937  79.7290441  69.3821957  49.5014457  80.0725414
  68.0091019  50.0479462  80.3995510  19.5163703  69.1611571  83.2561413
  18.8056939  69.6799763  83.6329667  19.0784647  68.4095507  82.8566937
   2.4481249  30.3873845  53.4094039   2.9916897  30.3332397  54.1954303
   2.9309725  29.8897126  52.7495458  19.9072326   7.6614654   9.6914946
  19.1478377   8.0714094  10.1056167  19.5330761   7.0423722   9.0646275
   9.6449092   1.3078138  79.3038055   8.9667019   1.5001528  79.9513179
   9.1682690   1.2103401  78.4794605  60.3597481  12.6054438  22.3109418
  59.7753869  12.1877737  22.9436388  60.8015292  11.8764926  21.8754062
  86.6625950  25.9292713  79.3692105  87.2775525  26.6515120  79.2410412
  85.8103125  26.3544358  79.4645082   9.5070067   1.4674869  64.4236580
  10.2650089   0.9273172  64.2003170   8.9836971   1.4888354  63.6224570
  79.7923088  66.0766195  19.2021930  80.5527637  66.6577347  19.2178526
  79.0975754  66.5797928  19.6269211  26.1239135  30.2666728  76.5537872
  25.4815642  30.2806244  75.8442630  25.7071514  29.7508692  77.2440683
  22.7766910  65.0131370   1.4569007  23.5380174  64.4369285   1.5247069
  23.1326624  65.8444191   1.1430755  78.0456440  18.1154330  60.3571105
  77.2419969  17.6750808  60.6336481  77.7912383  19.0317081  60.2477970
   7.9076506  10.2399313  70.9941476   7.9556797  11.1545387  70.7159060
   8.6665239  10.1233109  71.5657618   8.5919401  42.7167206  10.1660960
   7.9791018  43.3951914   9.8826556   8.7469692  42.1910073   9.3813518
  24.6571586  53.7940417  20.6151479  25.0545937  52.9243242  20.5719206
  23.7900415  53.6807446  20.2259133  39.5266581  53.1257799  60.9673156
  38.8507324  52.4820039  60.7553989  39.2029269  53.5624444  61.7551950
  42.9202081  37.4093302  74.1310773  42.9624674  36.4536072  74.0988362
  43.6885219  37.6997654  73.6395764  75.6563625  29.4200524  46.8876169
  74.8838529  29.6137543  46.3566364  76.1731471  30.2253304  46.8612947
  62.6153208  38.9031364  35.3937679  62.7276664  39.7798557  35.7611554
  61.6925511  38.8653129  35.1421783  16.5076191  20.6195672  18.1006254
  15.9793675  19.9104949  18.4672297  17.3808715  20.2405687  18.0005149
  40.3482680  21.1463621   6.7450275  40.0268425  21.9894974   7.0644651
  39.5568849  20.6614334   6.5109572  53.1720544   7.5683414  28.1054166
  52.4808187   6.9066062  28.0823609  52.9615660   8.1081200  28.8673650
   8.7339541  36.2111566   4.9942536   8.0858983  35.6174471   4.6150905
   9.4245329  35.6346443   5.3213106   5.2439455  67.9487935  21.9919445
   4.8044358  68.3443764  21.2392312   5.2733185  67.0140110  21.7881046
  36.3834082  38.4476061   1.2948052  36.3796551  37.7094958   1.9042402
  37.2842761  38.7704870   1.3152210   2.3691689  16.5879980  46.7743330
   2.8637752  16.6733127  47.5893900   1.8048508  15.8277559  46.9150771
  17.1148169   8.1148775  88.3123342  17.4891706   8.8944162  88.7227129
  16.4045476   7.8533867  88.8983135  21.7159416  18.9152528  84.3415995
  21.4014768  18.9189926  83.4375366  21.2889352  18.1571556  84.7405807
  52.3867806  28.5471853  38.1686171  52.2588233  29.4805147  37.9990440
  51.9938159  28.1103814  37.4129632  28.8053363   2.7760455  14.0098870
  28.7714909   3.7279813  13.9155238  28.7107275   2.6250723  14.9503593
  28.8841143  55.3542772  26.9089551  29.4813904  54.9640800  26.2708021
  28.0954118  55.5571915  26.4059580  21.1938524  44.6755301   0.4226013
  21.1585251  44.3104292   1.3067309  20.4219130  44.3172104  -0.0155178
  76.0553564  63.0756831  80.9656050  76.4416188  62.2613839  81.2880178
  76.3666633  63.1476398  80.0633068   2.4456912  40.4644832  61.9177929
   3.1352019  41.1269616  61.8738703   2.5053395  40.1152926  62.8070284
  14.1979521  70.3663740   6.4528330  14.6435471  70.1333710   5.6383476
  14.3872837  71.2971113   6.5716335  16.8948890  56.4318862  58.7592263
  17.3530523  56.1992815  57.9516291  15.9760763  56.5045937  58.5009072
  34.6209149  46.6727711  30.0698076  33.9067484  46.0733017  30.2862204
  34.6376776  47.2971038  30.7951762  17.8908137  17.8618539  15.9674640
  18.6811422  18.1919070  16.3948720  17.9112317  16.9175207  16.1225441
  19.2119794   6.3861704  29.5963123  18.6188246   6.9445552  29.0937134
  19.6868753   5.8840014  28.9340948  40.2125779   4.5223208  79.5525083
  39.4388413   4.9201422  79.9516345  40.7926914   4.3341357  80.2902660
  17.1172423  54.4457091  43.2223326  17.9223355  54.7674932  42.8167320
  16.7924709  55.1880813  43.7318804  30.8220331  38.1992992  81.4504130
  31.7431255  38.2235914  81.1911248  30.5407788  37.3061682  81.2518056
  69.2673795  62.2824406  54.6214083  69.2993273  61.3348019  54.7525268
  68.9951568  62.6325595  55.4696674  40.3630646  45.7065227  36.2984153
  41.2403193  45.4036589  36.0640450  39.7728610  45.1224178  35.8222714
   8.0482050  55.1426618  78.8468040   8.6114529  55.3940709  79.5787720
   8.6564039  54.9221218  78.1413338  60.5669824  58.6220633   2.6325562
  60.1826866  58.9957551   1.8395222  61.2588096  58.0426461   2.3133655
  19.5229684  13.6515977  12.0302379  19.4076518  13.0728294  11.2766059
  19.8167926  13.0729653  12.7338598   8.3246869  38.6711249  41.0907975
   8.2718206  37.8071772  41.4994923   7.4141058  38.9562479  41.0147790
   6.4776664  55.4094429  58.0165640   6.1100748  54.9851803  58.7918765
   7.2984730  54.9441139  57.8553893   0.4601218  70.7650286  25.8743673
  -0.2558008  70.5823704  25.2658259   0.1597388  71.5220600  26.3772644
  38.7407105  64.9576010  40.6793560  38.0816690  65.6144819  40.4548488
  39.1067032  65.2598732  41.5105676  73.7498279  44.2001485  49.6533769
  73.9866426  44.1860815  50.5807132  74.4885096  43.7817796  49.2111679
  25.7504262  70.5172104  14.4813869  25.0519401  71.1713631  14.5022010
  26.4853015  70.9647646  14.0620000  63.4382992   1.8751696  34.8797002
  63.4894584   0.9976025  34.5008987  62.5353780   2.1514937  34.7228237
  20.1235107  38.7656586  73.5856332  20.1272389  38.0868364  74.2604801
  20.0632837  39.5873959  74.0728214   4.3566262  33.9842649  39.9748043
   4.6721894  34.2941279  40.8237075   3.8137319  34.7003846  39.6451527
  51.7043252  39.5435139  41.8418897  52.1166459  38.8936787  42.4110450
  50.7688767  39.3470004  41.8923906  37.2253005  52.3958685  43.6985286
  37.7813274  51.6337116  43.8603395  37.7861323  53.0034429  43.2162914
  85.2505804  44.1418365  28.8035169  85.5201965  44.0765720  29.7196390
  84.5707924  44.8157172  28.8013356  67.3834168  59.8420240  88.0196210
  68.0640320  60.4395002  87.7097550  66.8213830  60.3851438  88.5722246
  35.5463058   1.9256016  21.7799029  36.1672356   2.4321805  22.3034063
  36.0035728   1.7657038  20.9543295  77.9079763  70.2354359  70.7709161
  77.9622370  70.7422336  69.9607040  77.0586936  70.4710073  71.1443553
  72.6722014  35.2410936  43.8615668  72.5476181  35.6180664  42.9905890
  73.6076039  35.0427086  43.9051264  53.4715867  22.9454837  38.6698879
  52.5968029  22.9193735  39.0575779  53.5015863  22.1809356  38.0947374
   5.5986018  65.2465905  63.6945399   5.5957359  65.3253652  64.6484886
   6.5204007  65.3290661  63.4501705  16.2517423  47.2126408  46.2216989
  16.6707295  46.9196902  45.4124637  15.3681362  46.8469578  46.1798915
  10.1847919  53.9342029  51.1344257  10.3577842  54.1463792  50.2172089
  10.5719924  53.0674224  51.2568973  67.8399074  58.1548176  29.5631493
  68.3719261  58.9490087  29.5136675  66.9367531  58.4681104  29.5142433
  66.1223505  41.2215276  73.4819064  67.0295898  40.9189400  73.5217758
  65.9750883  41.6488394  74.3256778   1.9764044  67.3842573  19.3241337
   1.6556415  66.9198819  18.5510241   2.8018454  67.7780666  19.0416569
  45.9027475  15.0106629  85.4390192  45.9149645  15.1904284  86.3791080
  45.0551057  14.5931451  85.2860021  76.8881519  67.4595047  80.9361590
  77.2683070  67.0944124  80.1371461  76.3201056  66.7652008  81.2700710
  77.5225121  62.8117903  37.5258525  76.6297130  62.7445337  37.8644055
  78.0782244  62.5650155  38.2651210  79.0463465  37.0286419  15.1226917
  79.1695405  36.1304776  14.8155177  78.4434435  36.9484193  15.8618156
  64.1928796  48.0628957  43.5031389  64.9846265  48.2877476  43.9918212
  63.5083842  48.6069110  43.8926837   2.3825813  53.2794228  74.3387884
   2.7198778  53.8638541  75.0176867   2.7387772  52.4199781  74.5639799
  25.8260021  39.3511697  10.2308500  26.0841896  38.6276570  10.8019020
  25.8751678  38.9877412   9.3466926  73.5572432  21.4427120  74.4350798
  73.9169236  22.1989576  74.8987117  73.1737141  21.8101640  73.6387656
  13.2344754   7.2230026  72.7031011  12.5736096   6.7040445  72.2446574
  12.9448132   7.2277174  73.6154088  33.8783615  12.2776306  78.4949922
  33.3996529  11.4493101  78.4640876  33.3678140  12.8700591  77.9430850
  62.6067233  40.0063251  81.8882860  63.1425433  40.3747137  82.5907236
  62.8566171  40.5044529  81.1100485  63.4158902  12.5832310  38.2127673
  62.8440048  13.2248806  38.6340329  63.6795290  11.9958647  38.9210944
  46.7739495  71.9151914  28.4561782  46.9411543  71.3252754  27.7211452
  46.2490410  71.3959832  29.0653790  57.3120844  56.1236791  14.2021763
  57.1718199  55.1798051  14.2774067  56.8720711  56.4929865  14.9678343
  45.5082265  29.5881363  76.9006697  45.2891586  30.4754077  77.1852581
  46.4623542  29.5450066  76.9640099  22.4900709   7.7197797  84.8391721
  22.9062058   7.5063658  85.6743476  23.1809147   8.1415607  84.3282245
  46.7083839   1.3888731  23.6992913  47.6640488   1.3566495  23.6557236
  46.4959432   2.3183057  23.6141102  13.6599992  34.0113098  88.0510866
  12.8526227  33.7783206  88.5094435  13.4356355  34.7993907  87.5562924
   3.9796657  61.6118363  15.3608181   4.7918472  61.3942493  14.9033808
   3.5754834  62.2912930  14.8211819  32.1992787  28.7351562  88.5701177
  31.5154234  29.2126021  88.1004165  33.0167730  29.0342627  88.1720346
  40.3264253  10.4380467  49.7631473  40.7219102   9.7108832  50.2438308
  39.9968828  10.0411180  48.9568711  41.2334726  48.1257459  80.8928322
  40.8691009  49.0045436  80.7870981  41.0684980  47.9068066  81.8099368
   0.6507482  52.9501055  82.0080685   1.2483445  52.5899355  82.6633456
   1.0014599  53.8198795  81.8164272  28.1348256  55.3874503  10.2662969
  28.0909146  55.0188167  11.1485740  28.5499421  54.7032013   9.7412128
  22.6532371  47.4398495  44.6500913  23.3706818  47.8502194  44.1672855
  22.9650271  47.3997791  45.5542003  44.0513805  61.4856477   7.4584241
  44.1158482  61.4125335   8.4106478  44.9461458  61.6674080   7.1710391
  74.0118192   3.2352894  26.1158902  74.1635355   3.3370594  25.1762856
  73.3327410   2.5635069  26.1774758  64.2061023  19.2757393  64.5119121
  63.3585751  18.8349919  64.5725017  64.2533014  19.5805756  63.6057780
  45.6633165  71.6707076  77.9417030  45.1119951  71.1039966  77.4021521
  46.0725113  71.0774299  78.5716339  59.3789235  50.3738422  50.7226937
  59.7039326  51.1506411  51.1778688  59.9854263  50.2530622  49.9920786
   2.1538561  52.7715247   6.6871679   2.5052169  53.0812333   5.8523877
   1.2066685  52.7421694   6.5522396  72.4264203  45.7447365  47.7589627
  73.1119775  46.2182555  47.2877696  72.9007550  45.1221540  48.3099886
  39.7012077  65.4520218   5.7754748  39.3246793  64.5944950   5.9732271
  39.8344634  65.8583481   6.6318472  72.0850946  21.1821711  39.7826847
  71.6840449  20.5510603  39.1851145  72.2956494  20.6714656  40.5643997
  53.2534762   0.4498774  25.5680421  53.2126417   1.3693962  25.3052692
  53.1989822   0.4711603  26.5234526  62.7547228  51.9904783  65.2502090
  63.1984870  52.6184769  64.6801889  62.9964118  51.1342067  64.8971973
   3.8577639  12.3007820  16.4577145   3.6072130  11.3832874  16.5656943
   4.0330902  12.3925617  15.5211949  78.7706416  39.9048023  65.1002537
  79.2014114  39.0651717  65.2605338  77.8359843  39.6982897  65.1000492
  24.4232419  55.3563696  76.8591569  25.3428216  55.1691770  76.6705730
  24.0537399  55.6161350  76.0152245  57.0353698  40.0280109  36.1755996
  56.8657898  40.4070443  37.0380428  57.9253430  40.3080517  35.9616913
  57.4119481  52.1341414  34.5000009  57.5511156  52.5351086  33.6420443
  58.0149473  51.3909655  34.5177050  53.1815561  38.2015563  82.4007799
  53.0661545  39.1167406  82.6564204  53.9551685  38.2060527  81.8370996
  14.1991552  41.8602154  37.6281429  14.5798713  41.5380228  38.4451368
  13.5710639  41.1842292  37.3736319  68.9398710  17.1575562  64.2117951
  68.7750213  16.5067314  64.8940586  68.1343869  17.1719373  63.6948615
  50.8289672  14.4346584  39.2024089  51.0063873  13.5201385  39.4224256
  50.7912070  14.8814755  40.0480805  59.6417157  20.5594962  63.5565388
  60.4791159  20.7798377  63.1485653  59.6965060  19.6184197  63.7226862
  25.4863598  64.3562202   0.5113151  26.1120408  65.0366644   0.7598120
  25.2067282  64.5987873  -0.3714075  49.6645011  69.1697540  40.8429070
  50.4157612  69.2176770  41.4341291  49.3320577  68.2785269  40.9498062
  39.8189009  54.7436197   6.9056226  39.0718318  55.1128123   7.3765966
  40.0092894  53.9245485   7.3629041  48.0978869   5.1960873  42.1354329
  48.7909731   5.3763660  42.7705415  48.5366670   4.7191336  41.4310046
  59.0729952  46.6857794  28.3891877  58.1704519  46.4960815  28.1329417
  58.9937279  47.3602108  29.0637918  19.1501615  59.7662522  49.6162461
  18.4743629  59.1415153  49.3531265  19.0920466  60.4688022  48.9687293
  67.5340919  11.9400913  47.9664787  67.3925014  12.1316051  48.8935744
  67.7688916  11.0123469  47.9466971  22.3211798  60.8242974  19.1769334
  21.8849560  60.0022879  19.4010783  21.9213437  61.4732593  19.7559079
  61.7706782  71.3807417  39.7485257  62.6480347  71.0334653  39.5876635
  61.9049901  72.3192970  39.8800787  27.0829283  55.2116049  76.1984801
  27.7554826  55.2138834  76.8795802  27.2488338  56.0088521  75.6953856
   6.4993304  42.5394485  58.0759675   6.3106495  43.4765300  58.0258705
   5.9158115  42.2139457  58.7613764  63.0860419  59.0593358   9.2504706
  63.3918865  59.9501107   9.0795583  62.2658159  59.1755919   9.7299971
  23.8406819  47.3051738   5.5165030  24.3289427  46.5143950   5.7456367
  24.5120412  47.9794830   5.4125045  71.6034990  60.0958545  23.4524056
  71.7571798  59.1513395  23.4748913  70.7852114  60.1938498  22.9655440
  59.2796092  23.4509002  60.5338476  59.0255912  24.0634798  59.8435919
  59.6860255  24.0003511  61.2040426  78.5983936  45.3606497  30.5663955
  77.8218305  45.4906010  31.1107247  79.3227114  45.6861617  31.1008462
  49.2450927  21.7477524  28.1899236  49.2230963  22.5163351  28.7600364
  49.9751787  21.9128988  27.5933224  39.1306710  62.9775497  88.0810105
  39.0398447  62.5487984  88.9319833  38.7360861  63.8408556  88.2044507
  77.3675136  62.5424437  73.5713328  76.9657096  62.0708982  72.8416546
  78.1798486  62.8964953  73.2094057  74.5554277  56.2021553  83.2522510
  73.8860094  56.4605042  82.6187158  74.1663669  55.4665322  83.7252438
  50.0482221  30.7240440  20.3550884  50.9922158  30.5659405  20.3656181
  49.7274523  30.2095494  19.6143901  27.0629402   8.0609094  81.5208214
  27.8140589   7.5161183  81.7558855  26.8104762   7.7574074  80.6488235
  70.0117519  51.9675923  34.1449018  70.3172562  52.5038814  33.4132646
  69.0819275  52.1800273  34.2257093  39.0616942  20.1332592   0.6046152
  39.4690752  19.6370349  -0.1053383  38.7319082  20.9270567   0.1834756
  70.9480842  32.3257943  59.9463387  71.8145139  32.7302990  59.9026654
  70.3826037  33.0091162  60.3062482  42.5973433  66.4648085  19.6155114
  42.1151955  65.8375008  19.0767625  42.1317234  67.2922905  19.4942535
   5.1397927  61.7131130  60.2359736   5.8793295  61.4002987  60.7569959
   4.3682415  61.4874537  60.7556067  13.9112370   6.7884400  82.3602214
  14.0471119   6.4043432  83.2263851  14.7070543   7.2939765  82.1948748
   1.8752513  53.1867885  23.8543744   2.5631372  52.9514665  24.4770046
   2.3440200  53.3889714  23.0446771  71.0780636   2.4792350  45.0754628
  71.1454002   3.1379211  45.7667155  71.6400445   1.7631258  45.3714307
   6.6390027  58.7925599  85.8887673   6.1446430  57.9732273  85.8656497
   7.4868484  58.5716869  85.5032744  14.8859601  37.0956717   2.0921274
  14.8286626  37.3879058   3.0018241  14.0513903  37.3576127   1.7033962
  67.6212210  33.4428733  28.6421604  67.1683727  33.4620087  27.7990744
  67.4632818  34.3086669  29.0185757  33.5729911  64.0995139  14.6507816
  34.1736615  64.4028140  13.9700203  33.8152624  63.1845743  14.7936872
  62.0652355  55.0106599  16.5242911  63.0050802  54.8309024  16.4995707
  61.6708952  54.2923050  16.0296259  52.4655919  15.4220205  16.7739432
  53.0510700  16.1790043  16.7533812  52.2988792  15.2230750  15.8526076
  44.9592732  56.0214355   6.7286286  45.2258124  56.7608490   7.2749402
  44.7993981  56.4058349   5.8667069  64.3767956   4.9445896  22.4289758
  63.4229066   4.9692929  22.3533625  64.5909908   5.6824259  22.9998960
  16.9166242  34.6342488  63.4791280  16.3469336  34.3763781  62.7544301
  16.3395075  35.1021145  64.0826757  69.5488992  15.4236653  31.6063732
  70.3546617  15.3362110  31.0971283  68.9726069  15.9518817  31.0540086
  40.6923168  61.3930382   6.3096565  41.1351459  61.9227571   6.9726287
  39.9038718  61.8906366   6.0929030  56.6546316  23.0296759  73.4329111
  57.0438444  23.8433955  73.1125898  57.2520583  22.3443316  73.1335511
  71.3725591  47.4066483  17.8836957  72.1041797  47.5014400  18.4935955
  71.7866442  47.2392700  17.0370849  65.7184989   1.1524158  64.9833719
  66.1608312   1.3494318  64.1576851  65.1241619   1.8904349  65.1187353
  73.4531761  67.9199723  33.6669169  74.3504685  67.6310393  33.5007366
  73.4362236  68.1228615  34.6022138   0.1176855  21.4556295  77.6942631
   0.7629164  20.7750714  77.8859652  -0.2616723  21.6727125  78.5458465
   4.4536280   5.7202176  83.2236593   4.9055117   6.4898245  83.5696912
   3.8946539   6.0638766  82.5267531  66.0944339  34.8102248  46.0905896
  66.2097098  35.2866944  46.9127331  66.5045830  33.9596423  46.2471752
  84.3168445  65.3064667  52.0699126  83.5205298  64.7889949  51.9501723
  84.7793620  65.2308862  51.2352888  74.9693640  70.8633413  60.5063022
  74.0198686  70.7513303  60.5526042  75.1818649  70.7271096  59.5829842
  38.7568611   0.5766260  30.1259622  38.2590613   0.2367176  30.8695276
  39.6018733   0.1301435  30.1792502  55.4504316   7.7198312  31.4811741
  54.9659938   8.4021565  31.0164331  55.6246647   7.0542562  30.8156784
  66.3372071  14.6608709  10.4277792  66.3045292  14.8229028  11.3705993
  66.8008944  15.4182323  10.0705265  84.1412713  25.7685808   5.6891358
  83.8820648  25.0109296   6.2135483  85.0277103  25.9736873   5.9864386
  63.7054331   2.4564366  69.8157302  63.6387788   1.7854768  70.4951432
  64.0250266   3.2324678  70.2760207   6.6035145  55.5264751  69.4125494
   6.8379273  55.8686282  70.2752276   5.9612091  54.8402306  69.5935029
  10.0653657  54.5605255  77.2086744  10.9301461  54.9609635  77.1190304
  10.2259905  53.6211316  77.1193958  29.6778494   6.6734098  69.2994237
  29.6423467   7.5797362  69.6052732  29.4651446   6.1511183  70.0728577
  58.1846151  27.3306473   1.9922415  59.1348848  27.2159138   1.9847862
  57.8532760  26.5551391   2.4450474  31.7022915  60.2317192  82.6556383
  31.4707723  60.4771926  81.7598852  31.0421345  59.5849929  82.9049765
  56.1172412  54.4277024  39.3892162  56.0583513  53.6988841  38.7714883
  56.9211811  54.8854987  39.1435844  67.4178128  47.5085492  57.4767465
  66.6667253  47.3023228  58.0331367  67.1627228  47.2018071  56.6066487
  70.9936017  65.7307557  20.3359625  70.0844478  65.8414168  20.6142161
  70.9948420  65.9877112  19.4138973  65.3224254  60.0186793   1.4739128
  64.5435213  59.8670446   2.0092137  65.3910689  60.9716232   1.4154511
  42.7447570  44.4391820  18.4499704  42.7880152  43.9969168  19.2977688
  43.2926726  43.9063807  17.8736518  14.1332470  20.5392422  80.4260096
  14.9934703  20.9355890  80.2876010  13.5819551  21.2620236  80.7258366
  84.3694555   7.4811420  33.6157665  84.6792333   6.9621595  32.8735221
  85.1451666   7.6030182  34.1631698  34.5102376  41.7484951  58.2209670
  35.1763812  41.1560977  58.5696070  33.8312262  41.1688153  57.8757906
  29.5741711  67.3329262  80.7273850  29.4166365  66.3978833  80.5965823
  29.1194541  67.7565641  79.9993772  87.0483044  21.9313170  59.3003264
  86.9797518  21.2953398  60.0124117  86.1481437  22.2195706  59.1491559
  34.9298511  38.6615500  54.0177902  35.5104910  38.2703280  54.6705034
  34.1121103  38.8204766  54.4892499   4.7113376  21.2085557   0.7292235
   5.3205375  21.7882542   1.1864510   3.9792951  21.7749085   0.4851124
  52.1121986  54.1726358  19.1833996  52.9269949  54.1994305  19.6850178
  52.2156801  54.8565405  18.5217368  62.9252439  52.8586230  40.1705523
  62.6912986  52.4414579  40.9996933  63.8317677  53.1409772  40.2918884
  49.0145542  65.1334886  78.8441110  49.3721394  64.3113310  78.5088179
  49.0927394  65.0584888  79.7951599  11.9356969  55.8873445  63.4687148
  12.6637210  55.2860051  63.3118593  11.7241472  56.2381370  62.6036002
  82.1344259  48.5678406  33.7424890  82.4253809  49.1638421  34.4326768
  81.5275426  47.9715468  34.1810756  41.1784375  54.7181899  31.9643781
  41.2111922  55.4809355  31.3869891  40.3889976  54.2482083  31.6958008
   0.7601085   9.4639031  31.6583374   0.0367680   9.7870005  31.1211052
   0.7769403   8.5208481  31.4952549  67.4733959  25.6025940  54.8403622
  67.1544817  25.9762112  55.6619069  67.1849209  24.6902106  54.8642472
  11.0991518  18.4611966  80.7230629  11.2954904  19.1889242  80.1330668
  11.9464385  18.0440810  80.8791134  33.5134471  17.4937070  73.7711403
  32.6465176  17.4705600  73.3660114  33.6622585  16.5965688  74.0698544
  81.7190378  49.6861594  60.1446717  80.8272957  50.0331914  60.1690969
  81.9864870  49.6481391  61.0629621  79.3775419  49.4273268  66.1824468
  78.7287668  48.7321977  66.0723640  79.6765656  49.6188227  65.2935452
  33.4114181  71.0020462  60.6633775  32.6966253  70.4299390  60.9426559
  32.9850447  71.6788719  60.1376926  80.2599456  71.0188735  72.7916430
  81.1382440  70.8196743  72.4673849  79.7860851  71.3335985  72.0218142
   4.9758170  10.3857457  67.1729843   4.7482753   9.5045174  67.4694522
   4.1595817  10.7369353  66.8170942   8.1172903  12.9177114  61.3863379
   8.2499351  12.2075829  60.7583612   7.9758132  12.4744147  62.2228211
  50.2824120  62.9418500  27.5947914  50.1054582  62.1226217  28.0571594
  50.2658080  63.6113037  28.2787416  73.4888934  31.3730889  87.2319899
  73.9419700  31.2494426  86.3979245  73.2826347  32.3074862  87.2562984
  24.7592213  63.7615609  71.8621838  25.4599275  63.3796263  72.3907371
  23.9847891  63.2430440  72.0804196  84.8765946  20.9756086  28.8329235
  85.0461881  21.7086245  29.4246646  85.1423246  21.2969192  27.9713094
  47.1210969  70.0588283  79.5280060  46.4498419  69.3941453  79.6824251
  47.9264628  69.6695760  79.8687408  81.4187747   9.0907971  21.8729463
  82.2377095   9.5432104  21.6707092  80.7340686   9.7002648  21.5973405
  35.0450463  57.5980500  35.7361478  35.7595210  58.2324347  35.7937138
  35.0687837  57.1339872  36.5729955  61.1209250  24.7729582  53.2613757
  60.4251598  25.1581974  53.7940420  60.6807612  24.4921917  52.4590929
  14.5213262   4.8882910  64.1461193  13.6578472   4.6089514  63.8418082
  15.1356922   4.4568303  63.5522946  61.9761538  40.4935309  85.1278273
  62.4468861  39.9882761  85.7906701  61.5261832  39.8345248  84.5991788
  79.4686150  27.9858109  76.4882602  79.7030426  28.0082509  77.4160382
  80.3067172  28.0327768  76.0282484  59.4671016   1.9386089  45.4512711
  58.9343840   2.6014470  45.0118516  60.3048276   2.3727808  45.6123356
   3.5563895   6.0428473  43.5205849   4.4931250   6.1117185  43.3361526
   3.2944099   5.2124853  43.1229701  74.7434848  36.8934149  57.6589658
  75.4419528  36.2416949  57.5986727  74.5195137  37.0893228  56.7491917
   2.0004203  14.5721927  32.8353366   2.3254562  14.7805443  31.9594524
   2.4961622  13.7961153  33.0964414  13.4732716  18.3871503   8.4342348
  13.6951362  19.2328284   8.8238968  14.0472713  17.7616987   8.8764639
  49.1701009  49.3119710  57.2149725  48.5217768  48.6617815  56.9444888
  49.7859076  48.8233432  57.7611015   6.8084410  31.0477229  85.5294874
   7.1189172  31.9073909  85.2452210   7.5810347  30.6266146  85.9063145
  74.4834447  12.9426946  83.6935215  74.6529331  12.0158224  83.5249582
  75.2531076  13.2428574  84.1770017  77.9720132  28.6409145  59.2396400
  78.2442817  27.7243756  59.2850081  77.4062816  28.7607513  60.0024105
  11.8891918  69.2186226  83.0873971  12.4373270  69.5081841  82.3580592
  11.1681890  68.7454919  82.6720248  19.1642189  21.5927052  85.1746584
  19.6639439  20.9101528  85.6225746  19.1662343  22.3303650  85.7846467
  35.3704446  47.9346723  83.7439053  35.5410886  47.7184770  84.6606234
  36.1509763  47.6350111  83.2778525  23.2858416  20.0379292  74.8346039
  23.0091181  19.5194613  74.0790597  23.7396620  20.7905591  74.4553585
  74.1622510  41.4457541  70.7268884  73.9052947  40.8370871  70.0342632
  74.9389542  41.8865339  70.3823929  70.4307572  65.9707787  76.6244270
  69.8591825  65.9478194  75.8569590  70.6591717  65.0544190  76.7804512
  22.8930641  22.8155901   5.5606222  23.0926417  23.0653896   6.4628421
  21.9939775  23.1137409   5.4228498  19.3776162  57.1402015  27.1186074
  19.8693675  56.4630643  27.5832553  18.7957746  56.6548586  26.5336848
   3.8821670  70.5532107   6.9076918   3.6393859  71.4060670   6.5472404
   3.8087155  69.9506780   6.1675627  75.8561550  20.0791774  26.3937713
  75.1807536  20.5552806  25.9106661  75.3877397  19.6733322  27.1232290
  57.4861857   7.6036771   2.7713387  58.3544492   7.2010236   2.7564880
  57.6117802   8.4590320   2.3604545  61.3966340  21.4810486  34.9061535
  60.7563510  20.7767439  34.8050371  62.2049447  21.0353458  35.1595598
  83.1673896  51.0025486  69.0843232  82.3034178  50.9380112  68.6773593
  83.1771014  51.8696939  69.4895349  66.5900170  39.3294079  23.0364463
  65.8839889  39.9533609  22.8678081  66.3458956  38.5505857  22.5363738
   0.9821611  25.9335578   2.5818337   1.3181594  25.4678155   3.3476150
   1.3779922  26.8032845   2.6377365  48.9018882  48.0800227  68.4049431
  49.4082511  47.2725364  68.3166581  49.5067818  48.6984667  68.8146535
  85.1871430  43.5152317  34.1238889  84.6925983  44.0840204  34.7139201
  85.6987466  42.9532748  34.7058667  62.1345601  60.3563687  42.1532515
  61.6047551  60.7070251  42.8691974  61.7185618  59.5227794  41.9334650
  15.4224046  61.0085873   5.8174712  14.7754832  60.7151963   6.4590679
  15.6317563  60.2231220   5.3120525  36.2828791  66.2556017  20.0812418
  36.7856207  66.3113826  19.2686095  36.9444558  66.2605974  20.7729955
  75.1501676  54.4970568   4.8159571  74.6906647  55.2834227   5.1104355
  75.3279575  54.6565176   3.8890294  58.0194201  36.8474485  34.6813097
  58.0464416  37.2192388  33.7996784  57.1249681  37.0083668  34.9817970
  82.4776600  47.9828628  68.7224363  82.9359352  48.5945309  69.2986982
  82.7587704  48.2279611  67.8408833  85.8565533  64.0664914  87.1238642
  86.4297092  64.7999754  86.9008726  85.5411115  64.2682346  88.0047887
  65.1841216  59.1447013  76.3670609  65.7776107  59.4121562  77.0688232
  64.6197881  59.9052032  76.2277903  26.2439673  24.2238778   4.2288356
  27.1792566  24.3607420   4.3796134  25.8167388  24.9227973   4.7240318
  40.7947302  70.8821302  35.5684898  40.1345374  70.2230384  35.3540710
  40.3063780  71.7040795  35.6147879  27.4395277  40.7463278  82.0773700
  27.6183949  40.0390653  81.4576779  26.5931412  41.0981296  81.8015130
  78.8386361  42.8978428  19.3096311  78.4711131  42.6493806  20.1578205
  79.1292980  43.8018537  19.4300958  37.2042447  48.0138791  15.1185537
  36.6658149  48.7676435  14.8773808  37.5908429  47.7217571  14.2930609
  35.1855448   9.8650202  12.4578614  35.8187776   9.9181778  11.7420247
  34.8103023  10.7439697  12.5114597  19.7117545  67.0653837  68.5827928
  18.8135909  66.9406763  68.8893579  20.0534364  66.1777736  68.4749336
  52.6871969  31.5260593  85.3289778  51.8000147  31.2698120  85.5809238
  52.9235255  32.2141290  85.9510234  26.2055458   3.8757311  79.0687753
  27.0593658   4.2966563  79.1690010  26.4076290   2.9458878  78.9649210
  12.8941916  10.5527909   5.9225792  13.7285664  10.6106498   5.4570656
  13.1039845  10.0895474   6.7335195  66.2278398  64.8651128  15.0572111
  67.1082508  65.2330563  15.1328808  65.6456717  65.6224606  15.1183383
  66.3739529  71.1607275  71.7302065  65.6348368  70.7260979  71.3047229
  67.0999982  71.0554016  71.1153923  58.9635939  64.6705206   1.5818661
  59.6117489  63.9662420   1.5709820  59.0637243  65.1013162   0.7329722
   5.1726207  17.1285043  28.7449598   5.1645558  16.2489875  29.1226065
   6.0692555  17.4370553  28.8756280  33.3481321  65.9357749   3.3726666
  32.8621437  65.1147612   3.2953127  33.2944916  66.1592200   4.3018742
  54.6117043  45.3247488  43.5625876  55.3772756  45.6913099  43.1201339
  54.2343710  44.7182586  42.9253897  54.5683897  47.8046238  47.8431439
  53.6693011  47.9576225  48.1337692  54.6125187  48.2102576  46.9772653
  86.5479410  19.9648784  69.0436897  85.6648001  19.8745954  68.6857190
  86.9925352  19.1556113  68.7913910  34.8099669  38.8653955  22.5894610
  34.0866949  39.4866865  22.5051580  35.4236569  39.2919608  23.1875065
  38.2981112  10.5433472  70.7588323  38.1332105  10.4272636  69.8231165
  38.2187625   9.6633530  71.1269977  65.0986562   1.1761809  73.8611673
  65.9350145   0.8469706  73.5319907  65.2051903   2.1273005  73.8770951
   9.4863274  70.0777544  68.5440581   9.4808450  70.4994935  67.6847922
   9.7485543  69.1745768  68.3659034  82.1215456  10.8570538  72.3447742
  81.8516646  11.6026228  72.8809858  82.1460534  10.1197593  72.9547152
  79.5635785  31.1309994  35.1565608  80.5011325  31.1164061  35.3489442
  79.3074167  30.2088080  35.1432905  74.3998952  30.6524045  13.2908560
  75.0839852  29.9868002  13.2185820  73.9314980  30.6059402  12.4573831
   2.7590876  61.7495926  61.7841195   3.2987433  62.3108651  62.3408750
   1.8819396  61.8089652  62.1626933  21.1898630  46.7298860  50.3299869
  21.9536794  46.6864439  50.9052514  21.3200369  46.0168700  49.7047711
  70.1589247   6.4814631  57.7227088  69.3759138   6.2737019  58.2325726
  70.8804264   6.1081305  58.2289596   7.8787403  57.3678637  88.0935854
   7.4282868  56.5401648  88.2616269   7.1975964  57.9456868  87.7494991
  51.4489443  42.8158912  41.1586744  52.3725019  43.0250859  41.0189938
  51.0007300  43.1934056  40.4018266  81.9520045   5.5041057  70.9834012
  81.1572175   6.0359536  71.0244288  82.6587760   6.1384579  70.8638051
  83.2884857  12.5604953  35.3359323  84.1852343  12.3996799  35.0423133
  82.9980739  11.7199974  35.6901303  53.1479621  27.9633705  43.3011306
  54.0998285  28.0638021  43.3109135  52.8233102  28.7919333  42.9485451
  81.2772232  22.7489665  29.0794375  80.5260202  23.2888922  29.3252142
  80.9079514  22.0647028  28.5211782  33.7904455  26.4216778   9.1029505
  33.5201391  27.1569315   8.5528884  34.6991908  26.2561533   8.8519215
  76.4911698  17.8059068  41.4621248  76.5578578  18.7148564  41.7546911
  76.1378028  17.3364004  42.2177222  68.3462966  57.2852143  72.5666155
  67.7831244  56.6458424  73.0028177  67.9301658  58.1293788  72.7411241
   3.7407967  50.7071756  74.8847555   4.1220719  51.0877245  75.6759847
   4.4530164  50.7205188  74.2453832  42.6698366  55.5784342  88.5019565
  42.2940573  54.8305857  88.0374736  42.0911019  55.7092846  89.2530731
   8.1327984  38.7347711  38.2624891   8.3892790  39.1649187  39.0782235
   7.6191944  39.3937793  37.7954229   7.1876815  66.4622453  59.6666444
   7.3793531  65.5771398  59.3566732   6.9808783  66.9546684  58.8722995
   3.6260636  44.6020457   9.5894467   4.5752683  44.4929345   9.5316792
   3.2753354  43.7209742   9.4593144  25.8720645  34.6805338  80.2081291
  26.3729273  34.7621309  79.3965195  25.0818602  34.2033310  79.9549758
  57.8776520  34.2981051  49.3590797  57.0110920  34.2441648  49.7620636
  57.9662191  35.2162989  49.1035255   9.3447787  53.9931662  19.6842773
   8.7917471  53.4211038  19.1521753  10.2365735  53.6895991  19.5146279
  70.0482428  37.8428751  58.7861956  69.2158739  38.0854973  58.3805746
  70.7034168  38.3572489  58.3146041  40.5909351  24.6047169   7.4603040
  40.0850682  24.7324831   8.2628041  40.0958441  25.0728311   6.7880051
  75.9104331  43.4957613  38.3017244  76.7098256  43.0775174  37.9819188
  75.3699589  43.6087624  37.5198356   2.2188992  64.4237392  65.8398707
   2.4354908  64.8419727  65.0065637   3.0622315  64.1369143  66.1902333
  77.2320437  48.4169875  29.5598519  77.7933523  48.5432893  28.7948602
  77.6229527  47.6768305  30.0241682  60.1084092  55.7498588  80.0407889
  60.4310467  56.1378690  79.2274101  59.5109701  55.0584151  79.7558258
  11.2682746  50.1255381  59.9596330  10.6886538  50.8056995  60.3026374
  10.6819741  49.4045315  59.7302138  64.1260394  62.9712534  87.4862442
  63.7561857  62.3534324  88.1169084  63.3770998  63.2562549  86.9627029
  17.1038078  54.0973659  51.1160588  17.7053128  54.2273580  51.8492202
  17.4315107  53.3145471  50.6732977  54.2981434  20.3356165  70.9046445
  54.3725698  19.4005428  71.0952478  54.2464913  20.3820858  69.9499694
  18.7973162  41.7641279  12.2166219  18.9673983  42.2619681  11.4169600
  18.2513262  42.3436166  12.7479594  32.9905448  51.1660824  31.9720389
  33.0208210  51.1034724  31.0173687  32.3444665  51.8503829  32.1468173
  16.0593725  70.3293076  76.2049148  16.0050459  69.7210392  76.9419969
  15.9781906  71.1959655  76.6030924  67.5319061  43.6980356  51.0191217
  67.1679141  44.5104403  50.6673545  66.9987410  43.0068834  50.6263425
   0.7644064  70.1468461  49.6752275   0.3447016  70.7035080  49.0193256
   1.6463517  69.9981436  49.3342115  26.0987881  13.7643808  71.4855061
  26.5396545  14.1275155  72.2536219  26.7833615  13.2815860  71.0223643
  52.0195672   2.1171298  30.5824135  51.0663220   2.1233208  30.6691149
  52.2877719   3.0037556  30.8236454  40.6927955  11.2881478  69.7171007
  40.6253718  11.0169029  68.8016160  39.8197562  11.1332572  70.0777156
  50.0307317  17.8496905  76.6901911  49.5667167  18.1421532  75.9057247
  50.8858601  17.5628635  76.3696955  13.0339200  40.7760361  65.9032835
  13.6672063  41.4900142  65.9768746  12.3879666  40.9575183  66.5859548
  32.2806853   0.9995740  51.6128082  32.5133384   1.8649631  51.9492693
  32.1541579   0.4641315  52.3960860  51.3172033  47.8421116  75.2519116
  50.5388557  48.3972088  75.2995977  51.2350463  47.2497008  75.9992612
  67.6683538  26.6336928  89.2599713  68.0055588  25.8190600  89.6326615
  68.1907313  26.7697128  88.4694954   4.4987031  10.2836271  46.6425004
   4.0828842   9.4308913  46.5153465   4.8654063  10.2419698  47.5256908
  47.0645569  59.8097198  35.8595988  47.4205561  60.4091668  36.5154644
  46.8988020  58.9991008  36.3409033  41.1249290  56.7462168  43.7856505
  40.9593435  57.5832848  43.3519106  41.9192010  56.8952605  44.2986318
  78.7209098  19.4730384  30.5001114  78.6834621  18.6105184  30.9134984
  78.0839065  19.9985097  30.9841967  22.8525516  29.4207929  35.7801596
  22.9919227  29.1768971  36.6952128  22.2401616  30.1554525  35.8187030
  52.0476409  21.0683000   7.0954866  52.4149178  20.7792080   6.2601631
  51.6897614  20.2720781   7.4881503  80.5262506  38.5308088  38.0560671
  80.1866185  38.0607393  37.2945446  81.4517531  38.2893866  38.0933811
   2.6167703  47.1659831  42.0097605   2.6753156  47.1833269  41.0545100
   2.1646606  46.3457010  42.2071588  63.3067807  40.5349598  54.8529849
  63.6819274  41.1883671  54.2625990  62.5683708  40.9819129  55.2667669
  44.9592315  68.2238921  79.5209352  44.2900928  68.1730337  78.8383674
  45.0915695  67.3162758  79.7947074  46.1082915  49.2109427  84.1743822
  46.1962640  49.8131405  84.9131992  45.3701883  49.5551300  83.6714204
  83.3172919  59.9025065  72.6933706  83.8516839  59.4899055  72.0148299
  83.7782259  59.7116843  73.5102907  64.5762816  11.6177182  34.1490946
  65.2445611  12.1822077  33.7605256  63.9265602  11.5033530  33.4555426
  63.7824210  12.7411560  79.7155435  64.7306295  12.8590369  79.7724341
  63.5888972  12.8043557  78.7802435  57.2253379  12.5388550  34.2445099
  56.8948489  11.7940402  34.7467645  57.4995487  13.1722309  34.9077408
  22.3631692  12.1777750  34.4025038  23.3169746  12.1535486  34.4793169
  22.1361072  11.3511577  33.9766181  45.4845904  17.4377276  69.1018391
  44.8781614  17.0168742  69.7112307  44.9332100  18.0196910  68.5788381
  11.6431253  57.6529715  20.3265711  11.3088992  57.9905651  19.4955746
  11.8738587  56.7429344  20.1399528   3.0958374  62.9652783  84.9012623
   3.1379138  62.2829548  85.5712593   2.2443709  63.3812517  85.0361798
  38.2388633   0.8785233   6.0810760  38.0489995   1.3790507   5.2875673
  38.5335833   0.0257195   5.7615487  66.7388954  18.0542488  36.7245874
  65.9795055  18.3026952  37.2516861  66.4812283  18.2534882  35.8245078
  66.3563683  17.3156618  84.8444281  65.6818462  17.0020691  84.2420068
  67.1696306  17.2616478  84.3425130   4.9180804  67.9632346  51.0769195
   5.4303564  67.4576810  51.7079668   4.1480958  67.4213438  50.9045539
  69.3221276  19.2019074  67.8236957  69.1826127  20.1119947  68.0854369
  69.2881425  19.2198557  66.8672676  69.5635105  31.1891506  48.7820310
  68.6378244  31.2762041  49.0095367  69.6630477  31.7050405  47.9819174
  71.4752848  12.0150156  18.0855833  71.2291855  11.7530677  17.1984248
  70.6555872  12.3052599  18.4856908  65.7783544  13.9583856  50.3872574
  65.2688570  13.9259382  51.1969434  66.2939536  13.1519684  50.3962359
   8.5909300  26.8293486  16.7698419   8.5792969  27.7112191  17.1418648
   7.8292218  26.3966146  17.1555539  27.7496860  22.2953441  12.1216237
  28.3097069  22.0687225  12.8640865  26.8585555  22.2287837  12.4646807
   3.0193119  10.3419337  22.4834396   3.7990001  10.5630440  22.9927808
   2.4010774  11.0475834  22.6733774  70.6732928  66.0956960  56.0573451
  70.7514184  67.0486663  56.0128941  70.3995206  65.8365256  55.1775091
  18.0380406  40.3076494  14.5026658  18.2834658  39.5104839  14.0330644
  17.9871365  40.9798734  13.8231399  37.7516845  43.4526407  33.8867303
  36.9112234  43.6026813  34.3195636  38.3528322  43.2360414  34.5994280
  60.6674689  10.4017008  18.5524390  60.2926765  11.1368778  18.0673850
  61.4134365  10.7782083  19.0193504  18.2051465  43.8547500   4.6455275
  17.5525636  43.3816569   4.1292423  17.8898918  44.7584298   4.6599880
  15.0930672  43.0114276  20.3356273  14.4887205  43.2991914  19.6513840
  15.9291729  43.4144682  20.1017097  10.2946964  68.4309446  23.6673584
   9.9470093  68.2641488  22.7912735   9.5954977  68.9064062  24.1160112
  20.7212257  58.3669302  80.9729716  21.6437531  58.5812378  80.8342373
  20.2911625  58.6195652  80.1559936  77.3888777   9.7302545  69.0030234
  76.8604055  10.5206297  69.1137298  78.1266322   9.8497073  69.6010879
  75.4864523  44.3742925  72.6260256  75.7384752  45.2281803  72.9775819
  76.1350187  44.1946196  71.9453560  60.7569284  59.5382941  73.3390029
  61.1704196  60.2326286  73.8519907  59.8453618  59.8165142  73.2502802
  75.9248150  40.5361208  13.8210137  75.2412588  39.9223836  14.0899181
  76.7288637  40.0167932  13.8270425  52.5796354  19.1068405  11.6411339
  53.1607044  19.7384951  11.2173378  51.7005431  19.4588565  11.5014438
  26.5047926  46.4350892  45.7730159  26.5847705  47.3361682  46.0858929
  26.2773399  45.9298323  46.5535366  22.3162843   8.8533043  66.7401730
  22.5718334   8.6299038  65.8451765  22.0932883   8.0137441  67.1422218
  67.4996528  47.7767008  82.5650057  67.0203372  48.5251812  82.2096669
  68.1395662  48.1638062  83.1624101  80.9456003  58.9173602  15.5648038
  80.8855488  58.6170877  16.4717008  81.8125384  59.3182653  15.5021518
  54.0660615  64.9223475  65.3645598  54.6141752  64.3345654  64.8446411
  53.2055682  64.5031534  65.3722673  86.7883222  58.4814877  87.8805670
  86.2420089  59.0801152  87.3712354  87.2360255  59.0444443  88.5121313
  18.5273463  -0.0626909  79.5419112  18.6007001   0.7969875  79.9564039
  18.3836095   0.1296481  78.6153167  68.4770118  21.0300361  20.2724311
  69.2152936  21.2341990  19.6984196  68.0351013  21.8691896  20.4019236
  31.7671768  63.1795104  31.8883780  31.3120009  62.8298050  31.1223800
  32.6927448  63.1638171  31.6448426  65.5329493  41.9807462  44.1840431
  64.6356734  42.3140565  44.1896941  65.5465074  41.3414918  43.4717217
  56.2646763  40.2243705  62.6099744  55.8268216  41.0522218  62.4120421
  56.3343573  39.7820209  61.7639819  65.5343130  27.6654867   1.5794460
  66.4229879  27.5271294   1.2518090  65.1890355  26.7831230   1.7152752
  65.3087452  21.7982909  47.1745149  64.8567535  21.8218155  46.3310803
  65.8778785  21.0306065  47.1199257  58.7486870  34.3636330   3.9405611
  58.4523741  33.8887673   3.1640735  57.9724614  34.8342803   4.2442003
  70.1063991  68.3313950  62.1483125  69.9215635  67.7635111  62.8963603
  71.0597182  68.4173143  62.1426162   6.0051220   6.2275533  49.3160120
   5.0976202   5.9473980  49.1969102   6.4979622   5.4117764  49.4046039
  34.7956696  56.7078255  14.3423820  34.2947308  57.4513179  14.0069550
  35.1012912  56.9937606  15.2032353  81.5891855  45.3462508  68.8722212
  81.8435381  44.9035019  68.0625855  81.9894343  46.2133012  68.8069812
   1.2950380   6.4418960  36.4086738   0.6602490   6.0857379  37.0303056
   1.9857504   6.8129029  36.9577659  77.7243161  70.0137139   3.1836732
  78.4956819  69.5252703   3.4711612  77.5509547  70.6287652   3.8963369
   6.5962435   9.5728197  33.9772282   7.3134718   8.9997821  33.7062238
   5.8646983   8.9784421  34.1439279  28.9620306  43.8872509  26.8065596
  28.1917131  43.8656959  27.3743432  28.6944579  43.4092398  26.0216125
  21.6650298  10.2417542  63.0958758  21.2779502  10.8016425  62.4228778
  20.9442585  10.0582200  63.6984003  50.1223726  41.1686432  45.1596654
  49.1931525  41.1892092  45.3884863  50.2512540  41.9427151  44.6115467
  67.5515430  30.0748502  76.4867725  67.3610883  30.6898437  75.7784352
  68.3747950  30.3883183  76.8612399  85.9124152  42.2684853  18.5816908
  85.0686881  42.2915826  18.1302233  85.6962204  42.4221812  19.5014023
  52.0320627  46.5132486  66.3304133  51.8204093  46.1972648  67.2088146
  51.1812333  46.6676143  65.9199352  60.6304813  27.3788168  49.4073898
  60.2876327  26.9873869  48.6039788  61.0975983  26.6648288  49.8412730
   7.5872895  60.4770245  35.8096967   7.1889857  59.7690784  35.3033388
   6.9700119  60.6376693  36.5234147  11.7839853   5.2861060  66.0186241
  12.0005263   5.0108715  65.1277886  11.7419043   4.4704330  66.5177619
  11.5872531  56.9419662  76.5916167  11.8534349  57.6830679  77.1358109
  12.2233756  56.9292656  75.8764813  25.3001954  71.0172020  19.0216872
  25.4464973  70.2359591  19.5550606  24.8284007  70.6973129  18.2527187
  74.5108633  66.1548053   0.2118230  74.6307987  67.0016574  -0.2179315
  75.3495715  65.7076902   0.0982954   3.4972633  27.3774891  12.3186008
   2.8970087  27.5605796  13.0413761   2.9390147  27.0190714  11.6285812
  81.7803573  10.6587758  80.2332751  80.9091316  10.9724589  80.4757632
  82.1861218  11.4010832  79.7854282  13.6869189  29.9180576  29.5765092
  13.2308455  30.4287133  30.2454334  14.6070420  30.1632302  29.6739556
  24.5172073  69.4216874  23.2842879  24.7900965  68.9272836  24.0571580
  25.0408347  69.0581600  22.5702193   6.4443001  30.0384243  61.0334800
   7.2063739  30.6046672  60.9116429   6.7899995  29.1499210  60.9481232
  55.1800819  49.9531294   9.9367748  55.6348943  50.4564054   9.2614299
  55.3967248  49.0412168   9.7425760  52.3257428  23.3409936  30.1178606
  52.6305748  23.1367106  31.0019294  51.4347464  23.6682560  30.2413778
  36.5021247  58.8830460  81.1398628  36.6720355  58.2903733  80.4076735
  35.5477322  58.9145560  81.2059986  52.9220011  49.9045550  63.6370212
  52.3007108  50.6262413  63.5400723  53.6599320  50.2860417  64.1125816
  70.9123477  65.0862665  48.7354056  71.7723515  65.3324501  49.0760212
  70.2953022  65.6242708  49.2314279   9.8990159  37.3220037  20.1215163
  10.0453560  37.1660196  21.0545144   8.9866894  37.0710314  19.9769304
  68.4568368  54.4483496  43.5865487  67.5609453  54.7565128  43.4499994
  69.0059083  55.1255588  43.1914030   1.9323314  22.3811434   7.5844904
   2.0477823  22.1192624   6.6710785   2.0175654  21.5665151   8.0798164
  27.0545241  35.4447499  69.2821262  26.7283900  35.7447718  70.1305690
  26.9283290  36.1930907  68.6987801  71.7560427   1.0318463  54.3542507
  71.6415935   1.7788862  53.7668287  71.1418548   0.3742140  54.0278692
  76.6989309  63.4650465  48.7302417  75.8889336  63.9716115  48.7896401
  76.4664658  62.7029591  48.1997564  86.4058609  68.1153906  56.9394005
  86.9577139  68.2492245  56.1688302  86.1109884  67.2075395  56.8680679
  42.4980597  29.8057453  30.9810116  42.8127991  29.0710312  30.4543561
  42.3382832  30.5042646  30.3463667  53.6997962  25.0630456  36.8021502
  53.7587661  24.2389451  37.2854852  53.7234442  24.8028519  35.8812963
  71.1235697   0.4339973  81.5237720  70.5554415  -0.3186805  81.3596433
  70.7441151   1.1393117  80.9995795  55.7555511   8.0862861  53.6695476
  55.6150864   8.9999465  53.9179952  55.1887901   7.5880885  54.2584558
   7.9038463  48.6254254  76.8617164   7.1802326  48.2954984  76.3290222
   8.6857884  48.2341125  76.4722647  20.4276840  51.1685167  76.3557806
  20.9549092  51.9673074  76.3698802  19.6966812  51.3742754  75.7730884
  51.3111206  65.5847619   2.2538781  50.9634101  64.9722448   2.9020694
  51.1921914  65.1390265   1.4151841  14.6074743  67.5159820  80.1931199
  13.9712666  68.1929438  80.4237589  15.0905677  67.3551784  81.0036720
  18.5109398  56.5942309   7.2774071  18.3385059  57.5341705   7.3322879
  17.8977806  56.2765364   6.6145814  34.9161581  49.3477686  19.2155753
  34.9553058  50.2487812  19.5363175  35.7684511  49.2025147  18.8048081
  75.3713318   6.1768569  10.6525875  75.0150443   7.0647066  10.6844311
  75.6868705   6.0774755   9.7543723   7.4493772   2.6669512  21.3854748
   7.0426726   3.3330249  20.8312464   6.7124044   2.2105212  21.7913992
  22.8304639  39.8553019  69.8801172  23.7415364  40.0832555  70.0650925
  22.3919815  40.6979238  69.7619930  63.6098669   3.2423484  77.7582078
  62.6563690   3.1612937  77.7806516  63.7693403   4.0684239  77.3017000
  66.1933891  62.2935456  75.0304550  65.7691383  63.0684978  74.6620908
  65.4847714  61.6581421  75.1322156   5.1903157  61.2878714  86.4567409
   5.8163796  60.5855991  86.2804191   4.3443069  60.9265155  86.1923116
  62.1355765  61.8947111  22.3610798  62.1948764  61.5783401  21.4596228
  63.0003778  61.7215588  22.7330594  69.1252486  56.6438448  49.8429979
  69.9917572  56.9602113  49.5874455  69.1726485  56.5585218  50.7952085
   4.9834800  66.4912990  85.9109412   4.8184910  65.9354124  85.1493635
   5.6265837  66.0054536  86.4272779  10.0877068  27.7757984   6.5578726
   9.9916494  27.2093108   7.3234421   9.8456213  28.6467862   6.8725260
  43.3497120   9.5890251  70.2990735  44.0838541  10.1893361  70.4290508
  42.5830902  10.0809658  70.5932116  29.7238751  39.7614525  83.2495352
  28.8436690  39.9762717  82.9407931  30.1586025  39.3795921  82.4870218
  83.7971203  38.4940336  33.4960903  83.4204421  39.3298074  33.7714586
  83.0988356  37.8562687  33.6440300  57.4574490  30.1346242  83.1187294
  58.3534834  29.8168888  83.2300779  57.0600262  30.0387214  83.9842290
  38.6004716  45.5951435  10.6782088  39.2253333  45.6901555   9.9593539
  39.1038264  45.1826661  11.3801549  33.3472354  13.8162789  72.6907777
  32.5253893  14.3039053  72.6358129  33.1395302  12.9551684  72.3280393
  51.5527001  20.1239142   0.6183924  51.2204084  20.3343866  -0.2542561
  50.8195081  19.6912347   1.0559421  55.3408900  25.6743594  73.5347832
  54.3974998  25.6181630  73.6867333  55.7306930  25.2056921  74.2727781
  62.3487449  63.2402858  37.8418254  61.7103936  63.3621343  37.1390505
  62.0272464  63.7911263  38.5555798  13.2563034  17.5812748  87.2303248
  13.3080008  18.5021280  87.4864275  12.3572137  17.4685822  86.9218286
  71.4672762  43.8879203  79.1724718  72.2031742  44.4999571  79.1626328
  70.9793254  44.1127693  79.9646705   8.4609591  33.9679854  65.0847340
   9.0932604  34.3078311  64.4515422   7.6190129  34.0162146  64.6319289
  78.3062440  56.8956016  40.4041658  78.6716543  56.0560617  40.6832355
  77.3930772  56.7010854  40.1931642  61.7281061  32.7801277  13.2735622
  61.9527460  33.1459289  14.1291078  61.6073252  31.8447888  13.4372234
  17.9741160  18.8848593   4.4761269  17.4999454  18.2704717   5.0364143
  18.2670875  18.3554866   3.7343964  26.1979337  24.4340781   8.8573702
  26.8863980  23.8071027   8.6356709  26.6657272  25.1821622   9.2285457
  45.8273604  37.8429809   9.9076508  45.6663767  38.1971279   9.0330675
  45.3360094  37.0217596   9.9276913  51.7302196  56.5546688   1.8410349
  51.3718465  56.1704518   1.0409237  52.4594328  55.9810200   2.0764220
  70.8118427  68.3984208  88.7911170  71.0135615  69.3337786  88.7656768
  71.1058333  68.1134465  89.6563286  53.3735674  51.5878106  66.4806030
  53.9302456  52.2561914  66.0810930  53.8323377  50.7640774  66.3156022
  26.3182330  12.8853378   4.0106900  26.8034746  12.9470556   3.1879122
  25.9149877  13.7470240   4.1161505  56.9054301  41.7952015  67.5653677
  57.2654086  41.7745242  66.6786773  57.6348822  41.5314272  68.1262194
  37.7774635  30.7310651  46.5112182  38.7206221  30.5677453  46.5079953
  37.4255510  30.0903580  47.1291857   4.2243938  61.5870544  24.3896277
   3.9763510  62.3663987  24.8869496   4.6723472  61.9291457  23.6159719
  12.3060904  58.3960970  13.6085607  12.2010632  59.0718401  12.9388052
  12.9997669  57.8296780  13.2706046  54.0019724  11.3827629  60.2931349
  54.6594417  10.7969831  60.6684055  54.4935286  11.9382818  59.6881530
  23.8483043  56.1031808   2.6424730  23.5600478  55.6531837   3.4366031
  23.9266605  55.4085323   1.9885955  79.4701760  19.1182594  44.5176478
  78.8088823  19.6671385  44.9391384  79.1511226  18.2238432  44.6378823
   1.6052614  46.9936749  33.1910745   1.8434317  46.3119009  32.5628302
   1.4411153  46.5207820  34.0069546  77.1960982  32.6711337  55.5378834
  76.9208565  32.0070427  56.1699094  77.8545509  33.1866777  56.0035939
   6.4225977  57.4718290  25.0330486   5.7574018  58.1353771  24.8501548
   6.0580374  56.9598451  25.7549906  69.5947870  43.2616103   3.1271726
  70.2117300  42.7748272   3.6736663  70.0148551  44.1106578   2.9897205
  55.7553711  67.2156282  50.6062506  56.6375504  67.5211598  50.3949641
  55.8518841  66.2711972  50.7285910   5.3662472  57.1024769  30.6621187
   6.2116770  57.1220935  30.2136819   5.5820763  57.2303764  31.5858564
  52.2913100  69.7628084  76.4078637  52.2468304  70.6760383  76.6911736
  53.0318529  69.7357966  75.8019771  12.3960124  49.9561287  57.1873137
  12.7053100  49.0904945  57.4542299  12.1842064  50.3987199  58.0091915
  82.6500561  65.8156081  67.4913342  83.4334557  66.1115628  67.9549371
  82.9413356  65.0530844  66.9913884  31.7157453  42.4105097  56.1857796
  30.7663286  42.3065733  56.2493167  31.8869101  42.4785590  55.2464694
  23.9837427  52.6875046  12.7663502  23.1980510  52.1508215  12.8707136
  24.6412121  52.2586903  13.3141495  74.2182795  56.8379873  55.0076987
  74.6136576  57.6667477  54.7373949  74.8447472  56.4647113  55.6277269
  47.7173273  41.3113312  81.5986950  47.2687233  40.7127252  82.1959027
  47.0815800  42.0080889  81.4356429  52.4142307   6.8607786  23.9941159
  52.4479279   7.7720289  23.7030502  52.4776515   6.9114848  24.9478656
  61.5026707  32.4765520  70.5339655  61.9321803  32.2561390  71.3605073
  60.5764657  32.5608865  70.7603807  48.8748349  49.6041275  75.4532494
  48.5646542  49.0540789  76.1726007  49.0566417  50.4510584  75.8605407
  15.4654722  14.7161128  25.5607835  16.0793553  14.2845883  26.1550613
  15.9733678  14.8739132  24.7649361  38.0738132   1.6653444   3.3405462
  37.9910309   1.9900393   2.4439124  38.2971347   0.7399515   3.2405090
  19.5545107   0.4549800  14.5411511  19.8759322   1.2575379  14.1302730
  20.3451964  -0.0495715  14.7321377  82.1027327  51.0540317  53.4692727
  82.0408067  51.9895669  53.6620705  81.2817436  50.8466041  53.0229741
  53.2876224  57.9132388  65.3802308  52.5857342  58.3684604  64.9150877
  53.3772977  57.0783517  64.9207160  53.8155044  40.3117758  59.6599280
  53.7887284  41.2309644  59.9256482  53.7724374  40.3374337  58.7040417
  81.9621257  57.1014466  88.2241245  81.9494837  58.0585391  88.2173517
  82.4155053  56.8621762  87.4157753  65.1462395  50.6375722  26.6064321
  64.9904489  50.4723079  25.6765672  65.2125591  49.7660925  26.9967610
  52.0764069  61.9932879  14.8482538  51.9190771  62.4104950  15.6952587
  51.2035033  61.8749475  14.4737318  14.7984183  32.1869201  80.0990834
  15.1133644  31.2832848  80.1210874  15.5513252  32.7097550  80.3747768
  69.5286541  36.1780451  15.8217787  68.6760873  36.4357558  15.4711407
  69.6130005  35.2530063  15.5906496  65.6925316  14.9551857  73.1875407
  66.4261623  14.4007435  72.9218121  65.2684864  14.4687609  73.8945120
  35.4856536  60.7842255  85.1181372  35.6849378  61.6727575  84.8231313
  36.0715844  60.2253178  84.6077069  72.0386363  14.7946795  79.6106464
  72.8489930  14.7172202  79.1071049  72.2459922  14.4043431  80.4596887
  40.3481401  14.1749998  15.3416930  40.6416435  14.1509517  16.2524670
  39.4843311  13.7629111  15.3574601   2.2322307  55.5050593  79.9464443
   2.0393701  55.4528228  79.0103311   2.9325807  54.8669495  80.0826707
   6.0765369  46.7584023  82.1725933   6.2332368  46.8219768  81.2304493
   6.7909978  46.2106652  82.4978031  44.9729311  63.9331305  19.2060133
  45.2070677  64.8553009  19.1010679  45.7952296  63.5022933  19.4393292
  86.4653500   7.7345629  46.1931036  86.5982069   7.3777135  45.3149013
  86.0679203   8.5927262  46.0453294  65.3669147  49.2877180  29.7910733
  65.6396845  48.9679396  28.9310905  65.8539746  50.1032691  29.9088899
  20.8695898  30.6656474  15.7166467  21.3190401  30.2363154  16.4445892
  21.5188559  30.6873732  15.0136435  48.5387057  28.5060972  11.6029884
  48.6157194  28.4570131  10.6501550  49.3686918  28.8860188  11.8911110
  52.2547378  47.7025984  21.7102198  52.9692441  48.3092991  21.9041959
  51.5935231  48.2420571  21.2766171  48.2768306  28.6874897  80.9415918
  47.7554797  28.6427440  80.1400789  49.1357401  28.3497094  80.6877988
  23.2973456  12.5696474  15.7128267  22.6589760  11.8839924  15.9092783
  23.5447014  12.4126269  14.8015685  81.2169116  10.7671882   5.6086169
  81.6930074  11.3941635   6.1531044  81.6070346  10.8600790   4.7394752
  77.7227167   6.3910528  52.5611519  78.0468915   5.6300271  52.0795063
  77.3581838   6.9639801  51.8865395   8.3020400  63.2060588  12.2885672
   8.3435109  63.0738371  13.2356836   7.4284629  63.5659353  12.1349968
  58.2589633  40.0142899  53.5325584  58.3289038  39.0659871  53.6423850
  57.3207908  40.1939740  53.5940235   7.6034868  26.8557547  25.2801250
   6.6760128  26.7531574  25.4934267   7.7722198  26.1863842  24.6170232
  70.3711121  13.8633011  67.1285965  70.2705519  14.8026023  67.2829753
  70.2029206  13.7550669  66.1925256  61.9174230  21.1480056  70.8971942
  61.7466952  20.7105907  70.0630767  61.1237749  21.6549082  71.0686708
   0.6897536  49.7320495  77.7839773   0.0848845  49.8296230  77.0485560
   0.1850864  49.2631846  78.4485889   8.7554946  66.7209462  34.6314425
   9.3714598  67.1410555  34.0311702   8.6991614  67.3207062  35.3753151
   6.1052909  29.4265775  40.3114129   5.8878404  29.0969219  39.4394758
   5.2621170  29.4925813  40.7596685   6.6629287  64.5825541  50.4266836
   7.5606220  64.2525888  50.4654340   6.1168880  63.8067930  50.5542218
   7.7092549  49.3300160  82.8405649   8.2949053  49.4139974  83.5930226
   8.1220256  48.6656603  82.2887645  35.9209378   4.3430190   7.9731071
  35.6531548   4.3773299   7.0547679  36.2787476   5.2128395   8.1509168
  74.6213958  39.2250938   3.0014929  74.5713284  39.7222161   2.1850405
  75.1484777  39.7726610   3.5833749   4.6938240  52.2764041  76.9454615
   3.9752196  52.8934070  77.0838336   4.4820997  51.5319408  77.5086481
  71.6137216  50.9138535  72.9191726  72.4342682  51.4043244  72.8704549
  71.8147767  50.1659376  73.4816942  75.7070725  24.9189382  64.6974831
  75.5780460  25.8266728  64.9724413  75.0771599  24.4194556  65.2170589
  18.8797496  44.5776986  35.0325675  18.9301294  45.0323119  35.8734126
  18.3179863  43.8215189  35.2024088  61.9805967   4.9825165  36.2801999
  61.9787563   4.1358660  36.7267549  62.7670759   4.9639873  35.7349120
   5.9630898  -0.1456039  87.1358157   5.6394475   0.3325457  86.3723627
   5.7129928   0.3982507  87.8827464  46.1656751  62.4270829  49.8590766
  45.2286647  62.2863632  49.9948749  46.4562631  62.8833934  50.6487419
  86.1073323  46.5403914  86.0563424  86.6821334  47.2998204  85.9609319
  86.5593967  45.8376770  85.5893712  22.2231492  51.7887067  87.6246096
  22.3057687  50.9587589  87.1549368  21.6114223  52.3024642  87.0972811
   2.3761866  55.2793036  66.1104481   1.9959821  56.0038949  65.6138155
   2.4504272  55.6143163  67.0040289  67.1372556  40.4737923  82.3623270
  67.7990776  39.9498188  82.8136309  67.6411406  41.0828700  81.8225528
  79.3746152  49.3398230  47.6669212  78.5871541  49.5466415  47.1635694
  80.0581989  49.2267331  47.0065002  64.4675282  19.7166157  85.7135132
  64.9812641  20.3209139  86.2493592  65.1125616  19.1074564  85.3542242
   6.4644887  56.2638076  54.9480547   5.8329747  56.7949427  54.4629593
   7.2373363  56.8230310  55.0268427  32.7690688  14.2055154  13.7850187
  32.0663875  14.4626184  14.3819851  33.5090985  14.7594597  14.0334810
  14.3177889  41.0709039  59.6500662  14.4429967  41.9430206  60.0241884
  13.5811618  40.7040492  60.1389732  80.7378692  41.7602861  27.4107503
  81.4868500  41.4518439  26.9007277  80.8954436  42.6975049  27.5248688
  43.8417663  13.8326503  13.9942888  43.6206172  14.3938042  14.7375459
  44.7318371  14.0913372  13.7553602  77.9603671  14.2830566  33.3656171
  78.5741766  15.0043896  33.5039947  77.7729736  13.9559060  34.2454399
  31.4747768  39.8125223  73.3333024  31.0312946  40.3622550  73.9793282
  31.9076656  40.4333569  72.7472960  23.1183047  52.9397531  62.7494740
  23.3825397  52.3590003  62.0359350  23.9355766  53.3373786  63.0497945
  67.2409545  43.3099929  21.8513475  66.5475087  42.9379033  22.3962457
  67.4620191  42.6117050  21.2351039  32.4098501  59.3688627  14.2966645
  32.4135195  58.5696059  13.7699702  31.4903327  59.4984565  14.5288823
   0.5253214  67.1254673  87.1036801   1.4237521  66.9647345  87.3921572
   0.0317035  67.2480500  87.9145726  16.4715811  62.3936661  22.6340844
  16.0196481  62.6836620  21.8416889  15.7677406  62.1635129  23.2406072
  20.3733814  54.9860630  88.0951723  20.7839956  54.1728705  87.8013259
  21.0466935  55.6542535  87.9670940  48.6482546  56.2334281  64.4944385
  47.9934589  56.8893589  64.7336649  48.6650327  56.2496570  63.5375232
  74.8190393  49.8123611  11.6616333  74.6793212  49.0700622  12.2495984
  75.1941339  50.4931202  12.2202951  13.9829864  13.0509063  63.9292178
  13.4847064  12.2930226  64.2350955  14.5115100  12.7139495  63.2057852
  27.1026259   4.3149772  65.8385569  27.8211638   4.1424990  65.2301275
  26.9512941   5.2576074  65.7694278  23.0949684  37.3375104  21.2129080
  23.7739535  36.9432320  21.7604074  23.4772920  38.1626545  20.9142480
  20.7099193  23.7232905  21.7574223  19.9056960  23.4468496  21.3180624
  20.6532589  23.3319869  22.6291464   7.6405108  24.9518947  61.5310398
   8.2815879  25.4112311  62.0734990   8.1393662  24.2498118  61.1133620
  63.1755305   6.1751367  54.7378578  62.7683987   5.3971893  54.3567104
  63.7631705   5.8323869  55.4112326  86.5373775  63.9160001  60.7142160
  86.5079367  63.1202482  61.2453882  86.0201447  64.5525950  61.2076215
   6.8202735  23.0553637   1.6154542   7.4455861  22.4349456   1.2408914
   6.6387665  23.6707851   0.9051419  57.4892712  38.5656725  73.2738087
  58.0053980  39.3181232  72.9845630  56.8636918  38.9306621  73.8996400
  19.0579744  45.7970153  23.9387981  18.3882205  46.3940111  24.2723512
  18.6100755  44.9547953  23.8595277  18.6085533  47.3289675  77.8420608
  18.2833665  46.8191511  78.5840666  18.7760356  46.6788254  77.1597875
  60.3223885  37.2825497  38.9060574  59.8097666  36.5285203  39.1974168
  61.2332686  37.0050607  39.0036746  28.6581772  63.6605382  25.8923732
  29.4377954  64.1510107  25.6318662  28.9230215  62.7424108  25.8364128
   1.8495435   3.4064190  53.4133792   1.5290722   4.2780110  53.6454514
   2.4927205   3.5639085  52.7221829  29.4016848  64.9227297   2.8121037
  28.7299724  64.3024888   3.0955390  29.0518423  65.7808265   3.0519202
  38.0419166  53.9192036  69.7495883  37.7155250  53.3984573  70.4834299
  38.8207352  53.4498986  69.4505461  62.7921048  -0.2334674  25.5543912
  62.4793261   0.0090951  24.6828611  62.8061867   0.5903041  26.0416632
  37.5606336  51.4533965  25.2376051  38.2516266  51.0735832  25.7802859
  37.7357232  52.3943547  25.2507661  84.7160944  41.0374252  37.1120620
  84.7168041  41.8385606  37.6359069  85.4308985  41.1592078  36.4871972
  50.2783205  17.8742879  22.4232872  50.0325052  18.6434899  21.9093466
  49.8185736  17.1479641  22.0021953  82.6343730  44.9055894  81.0193068
  81.9438379  45.5435250  81.1993938  83.2519719  45.0104199  81.7430568
   6.1515869  57.6006075   6.0720007   6.0647281  56.6809214   5.8212720
   5.3108364  57.8197910   6.4736587  84.2980285  28.6666781  21.5985935
  84.8577479  29.4258196  21.7618427  83.4236720  28.9524158  21.8633320
  59.6176542  24.4431310  39.4638592  60.3422728  24.3721026  38.8424780
  59.2199006  25.2923523  39.2719032  63.2971308  44.0272335  68.2830399
  63.3809365  44.4573781  69.1340299  64.1981538  43.8409168  68.0190787
  40.5144416  42.3307103  10.9087905  39.7192975  41.9308377  11.2610397
  40.5185253  43.2161751  11.2723387  60.0242189  54.2836465  70.4856023
  60.3191465  55.1942658  70.4903051  59.3329190  54.2591954  69.8239843
  36.0238385  65.7120296  53.2088721  36.1494254  66.5240265  52.7178316
  35.0812893  65.6736491  53.3712293  53.0798649  37.4809842  59.3035181
  53.9348105  37.1706468  59.0052053  53.1309026  38.4337651  59.2271268
  31.9909224  67.8579489  38.1653874  31.1880185  68.3693584  38.2655745
  32.6911926  68.5104834  38.1581676  57.6762295  51.0430822  84.4085921
  57.8168029  50.3111032  83.8080276  58.4823401  51.0893114  84.9226743
  57.7273796  53.3975585  52.5745273  57.4749876  53.4517372  51.6527926
  56.9209314  53.5845181  53.0550679  67.3130872  48.2930572  53.4816995
  68.2584699  48.1983579  53.3654436  66.9798886  48.4681036  52.6016033
  19.7801578  51.8190751  54.7157199  20.7345678  51.8912696  54.7267333
  19.6117040  50.8781852  54.6649115  77.5100673   6.0825987  25.4463252
  76.6235982   6.1781338  25.0980761  77.6443755   6.8671510  25.9779931
  27.7022462  60.1534884  53.8366648  28.1971804  60.5307740  53.1093906
  28.2438501  59.4262048  54.1431865  16.3606166  70.5603549  81.1815126
  16.7002432  69.6915585  80.9668538  16.9558119  71.1660466  80.7397979
   8.8129248  49.9347347  40.8878799   8.6313277  49.3848760  40.1257056
   9.7634448  49.8925948  40.9926066  14.0627416   5.2612532  79.1233212
  14.5286029   6.0786608  78.9471114  13.1605550   5.4374141  78.8563783
   9.2821480  16.7338894  79.1670422   9.5779898  15.9597256  79.6459785
   9.7795027  17.4567514  79.5495872  32.6453756  38.9582516  84.9107149
  32.0499845  39.6907645  85.0693533  33.5200008  39.3375562  84.9966837
  72.0986984   6.8691361  13.6762756  71.8220372   7.1155286  12.7936765
  72.5140031   7.6574857  14.0259308  65.1162441   8.5911675  37.5426750
  66.0704324   8.5315774  37.5896368  64.9269358   8.6703421  36.6077281
  42.0743614  10.7690401   5.0305252  41.7235244  11.5423925   4.5888564
  41.9431996  10.9451717   5.9621936   7.5582720   1.0061130  77.4292253
   7.6022191   0.2021430  77.9468475   6.7392326   1.4208914  77.7000852
  57.1002370   1.1103168  14.8028812  56.2421752   1.4691502  15.0291562
  57.2199926   0.3771464  15.4064967  32.6503758  52.5661692  35.5069584
  32.7668916  53.4564962  35.8385814  33.4995590  52.3385375  35.1284040
  78.6720595  44.4546689  82.0738271  78.2755703  44.5349051  82.9413467
  79.2613980  43.7040945  82.1483256  21.7845198  10.3828191  15.7395463
  21.9594810   9.8400643  16.5083360  20.8402793  10.3065192  15.6023602
  80.7224391  53.8583070  81.0583522  81.0290647  53.1340519  81.6039410
  80.3153127  54.4669111  81.6748593  20.2142832  40.5976452  88.8689599
  20.7210768  41.0121159  89.5672479  20.4460278  41.0889520  88.0808331
  56.7548585  35.2592923  18.3526588  57.0819782  34.7974223  19.1246049
  55.9126728  35.6207866  18.6288417  83.2862449  68.4922393   1.2483696
  83.8978358  69.1746259   0.9717164  82.6111736  68.9604516   1.7395801
  63.5811099  71.8522372  59.6677642  62.6791181  71.7953882  59.9830590
  63.6748034  71.1070725  59.0743142   2.0857320  15.3944233  14.3495880
   2.7651952  15.7043332  14.9483513   1.7296898  16.1919644  13.9579325
  20.1193104  59.8547128  22.5008074  19.7634301  60.6866043  22.8131173
  19.5995009  59.1881403  22.9499299  46.7551653  49.4865665  70.9890580
  46.5020098  49.7120021  70.0938916  47.0219757  48.5686919  70.9385585
   2.9926169  69.9930928  69.1176972   3.1358454  69.3423390  69.8048922
   3.3394697  69.5843330  68.3247026  65.4942453  12.5089537  44.1992732
  66.3828396  12.5434254  44.5534536  65.5210259  11.8029118  43.5535027
  31.8165118  36.4628846  56.9262769  32.1040559  36.3582071  56.0193078
  31.0805600  37.0728121  56.8753340  86.9132469   9.4527633  84.2568006
  87.2349873  10.3071058  84.5445747  86.1219221   9.3077229  84.7754528
  35.9641387   3.9561353  40.3657229  36.0676885   4.0104677  39.4156928
  35.9952112   4.8656531  40.6624445  71.3211621  63.1874272  20.4922065
  71.6710708  64.0722729  20.3880724  71.9514367  62.7461015  21.0616074
  32.9756600  70.1244156  15.4844265  33.3671830  70.5992695  14.7513130
  32.6145729  70.8089442  16.0476924  83.4195810   2.9028400  58.0040876
  83.5424730   2.4639322  58.8458056  82.4772313   3.0627327  57.9526745
  50.0597876   5.2221686  76.6118526  49.1992774   5.5583368  76.8623421
  49.8770404   4.5911026  75.9157269  60.4501345   5.1229382  66.5109004
  60.1062273   4.7430413  65.7024216  60.8286912   4.3807656  66.9821822
  46.9215936  18.3185472   6.5071540  46.1380840  18.8363666   6.3222010
  46.6720171  17.7615352   7.2445013  13.2271542  37.6409207  77.5546358
  13.7665737  38.2134672  77.0092472  12.5952587  37.2568535  76.9468263
  53.1921149  25.7685986  81.5557940  53.9157168  25.5485777  80.9690888
  53.6029962  26.2537234  82.2713793  73.4924840  34.5715729  82.5761410
  74.2602792  34.3678758  83.1102102  73.8535461  34.8622508  81.7386612
  11.0407874  10.5964030  84.8023920  11.1871817  10.3654932  85.7197149
  10.3101268  10.0415634  84.5294086  52.0597997  15.3878422  58.0395744
  51.4706733  14.6976495  58.3441988  52.1204185  15.9941018  58.7778200
  68.4087929   1.7376561  70.1227199  67.9095892   2.2959598  70.7188110
  68.7560390   2.3399674  69.4647891   2.9705959   4.4714982  56.0041489
   2.1853248   4.4788569  55.4568583   3.6954910   4.5500947  55.3840027
  61.5987068   1.0106861   7.2711903  61.4375848   1.7204823   7.8928501
  60.9535987   0.3413709   7.4994109  35.4374007  32.8849320  69.1746465
  34.6077527  32.9893384  68.7087974  35.2431454  32.2592442  69.8725085
   2.3756472  11.7693709  26.2354047   2.9877638  12.3671981  26.6645290
   2.9102574  11.0139330  25.9909927  47.1602697  36.2375393  48.8337042
  46.9948002  35.2948473  48.8472470  47.2806780  36.4728186  49.7536919
  46.0698184  46.1423925  38.2526446  45.4922259  46.7495064  37.7900093
  45.4924362  45.4358274  38.5418286  62.4572964  41.1850195  69.0670416
  61.9607449  41.9941512  69.1894115  63.3714919  41.4458243  69.1786627
  50.7062404   9.1897818  65.8755379  50.1362521   8.8248898  65.1986339
  51.0378181  10.0036913  65.4962761  18.9331508   4.0247684   0.7176540
  18.9849829   4.9374327   0.4337717  18.0833742   3.9572527   1.1530310
  76.1519127  43.9171378  52.3115010  76.5219530  43.0735205  52.5715239
  76.7563709  44.2494866  51.6478698   5.1261309  13.4222202  71.7398461
   5.3971338  13.1741511  72.6237301   4.9076148  14.3516260  71.8083106
   0.0042308  48.2771030  81.6674960  -0.2008904  48.9090676  82.3565373
   0.6592098  47.6995353  82.0594780  79.3330194  34.2316698  14.6540270
  78.7772896  33.4865349  14.4256189  80.1657892  33.8383216  14.9148018
  29.6265563  59.1147196  14.5393385  28.8214079  59.4806785  14.1732211
  29.5250979  58.1678791  14.4422248  45.5236216  58.1951236  56.4335079
  44.8832255  58.7694889  56.8533046  45.2875445  57.3161192  56.7299041
  79.3079808  57.3914012  62.5975333  79.5288968  57.4170457  63.5285383
  78.4089949  57.0635525  62.5736314  43.0976747  34.6412519  63.5643069
  42.1552568  34.4998951  63.6542991  43.2854126  35.3800440  64.1432478
  82.3368662  39.3442789  71.3578591  82.7124567  39.9440741  72.0023816
  81.9818324  39.9158958  70.6770971  56.4434951  57.3461497  21.7277631
  57.0964721  58.0426222  21.6586327  56.9186737  56.6096605  22.1124978
  81.4105621  56.4464210  75.4977179  81.2630370  56.6939788  74.5849292
  81.9556728  55.6611847  75.4478178  75.8577753  47.6601824  89.0119968
  76.7882955  47.7618790  89.2120513  75.7215133  48.1933278  88.2287851
  41.3595137  25.7606739  70.1653049  41.1216797  24.8377295  70.2538522
  40.5923475  26.1681978  69.7632950  63.8512597  23.1273223  49.1438357
  63.4527742  22.4196629  49.6504512  64.3882964  22.6804560  48.4895162
  45.6720180  35.9809584  26.8027167  45.6743764  35.9962978  27.7597909
  46.2284827  36.7176474  26.5499951  65.5161816  14.4719606  19.2545008
  65.7237667  13.5391218  19.2001687  64.8878288  14.5360085  19.9737383
  28.9135428  58.8587075  35.5417851  29.3246462  59.6052797  35.1060607
  28.7986788  58.2097334  34.8476160  19.2566941  36.8007745  18.5986654
  19.1968879  35.8472817  18.5394503  20.1615101  36.9994307  18.3576768
  21.9372642   4.2064031  87.6081096  21.4509153   4.2561701  86.7851759
  21.4528761   3.5703953  88.1345069  73.0689223  43.6453215  12.1791691
  72.5870527  43.4003759  12.9691281  73.1154885  42.8379972  11.6670256
  54.9588761  71.5258037   6.3518954  55.6953199  70.9380222   6.1833861
  54.7896475  71.4349814   7.2896293  44.3510891  20.1064448   0.8288942
  43.9587150  19.9249475   1.6829042  44.2428082  19.2920977   0.3376246
  13.3405818  27.2725001  16.1549160  13.5053508  27.5155092  15.2438564
  14.2047633  27.2855127  16.5663195  63.0325430  69.7025799  30.4853219
  62.3468300  69.5345362  31.1316894  62.9619430  70.6388413  30.2991443
   2.0023729  32.6185832  10.3022112   2.7246408  32.4368674  10.9034934
   1.7813538  31.7654752   9.9285949  68.5903036   3.4434730  47.4206970
  69.5158859   3.6611306  47.5309436  68.5942107   2.6246044  46.9250450
  43.5732204  66.6615252  49.1515885  42.8927890  66.0370879  48.8999478
  43.0927221  67.4475754  49.4113543   4.5421983  47.3987790  66.5747128
   4.8300442  47.8732992  67.3545891   4.0155818  48.0335183  66.0889013
  37.5009939  11.6703754  87.4663762  37.9041462  12.4250893  87.8954532
  37.9950888  11.5648847  86.6533733  74.8617893  51.8039629  21.4729472
  74.0811423  52.3466839  21.3621497  74.9001565  51.2741592  20.6766634
  18.1391096  15.7066919  70.6620312  18.1702669  15.5348109  69.7209053
  18.9843427  16.1099730  70.8599638  38.2470823  51.9401553  80.9606953
  38.5644450  52.7638109  80.5904195  38.7394263  51.8382758  81.7752196
  42.8916322  61.5003037   4.5660955  43.0906874  60.8717741   5.2600403
  41.9699819  61.3450545   4.3594795  84.9118837  19.9962126  73.2265789
  85.4058047  20.4929689  72.5742699  84.0778600  20.4601815  73.2998544
  85.1156262  14.0494968  19.6678196  85.9876727  13.6682155  19.7697575
  84.8063906  14.1830633  20.5637912  68.0009737  34.9781062  22.6909201
  67.5757131  34.3695270  22.0867540  68.9260243  34.9511583  22.4464061
   4.4589890  39.8047704  43.0685895   4.8624780  39.8471527  42.2016223
   5.0603436  40.2865727  43.6364547  22.5730808  38.7347865  56.2102478
  22.3506761  39.5787490  55.8171889  22.4862500  38.8790986  57.1525144
  50.4000945  51.5510811  55.6517267  50.1312513  50.6381960  55.7546634
  49.6319647  51.9867934  55.2824529  43.6919484   4.9086183   4.1984641
  44.6252709   5.1208850   4.1893131  43.2964654   5.5416366   3.5992039
  86.4361629  65.2743201  65.6724511  87.3102924  64.9971402  65.9468611
  85.9316815  65.3148191  66.4849104   5.4191470  28.1906803  87.1268990
   4.7211167  28.1846189  86.4719572   5.9989472  27.4752797  86.8656221
  45.9547979  10.3199987  64.9665248  45.0739853  10.3624467  65.3388137
  45.9340784  10.9331476  64.2317794  14.6452620  43.5931078  43.4484228
  14.3119705  42.7364390  43.7153821  14.0335837  43.8885478  42.7740367
  16.9023832  62.5690688  84.3518481  17.7653473  62.8026356  84.6938588
  16.9177446  61.6136688  84.2952204  52.7818578  55.1483629  45.4935523
  52.9930568  55.2029329  46.4255656  51.8389932  54.9848993  45.4707968
  39.1484774  11.6235769  73.8511908  39.1238262  12.4771077  73.4186293
  39.4988066  11.0289540  73.1879224  26.5275004   4.1964703  69.9643035
  27.3889176   3.8103687  69.8058176  26.3472418   4.0098836  70.8856742
  13.2909919  18.7163247   5.5485376  13.3059478  17.9512117   4.9735504
  13.0837681  18.3620556   6.4132824  72.4311999  32.0135040  53.5301734
  72.9162686  32.4778332  52.8480161  71.6943160  32.5893455  53.7342337
  42.9851566  48.9720339  84.7711301  42.2294020  48.6828261  85.2824281
  43.6762421  48.3472454  84.9908388   8.5644209  12.7972189  20.6166632
   7.8473326  13.3526163  20.9225223   8.4256780  11.9607168  21.0607875
  38.0203298  58.1503931  32.4422137  37.9741880  57.2642466  32.8011665
  37.2562411  58.5967259  32.8071619   5.8714975   8.1945005  42.4136480
   6.6379453   8.5028141  41.9301892   5.9518490   7.2407023  42.4069813
  54.8930187  16.5192721   3.5024232  55.0141101  15.6696402   3.9263269
  55.7777002  16.7962025   3.2639279  66.0977299  15.1126402  77.7385291
  66.4278971  14.4069991  78.2946696  65.2089585  15.2720429  78.0561893
   7.7160274  29.5002683  74.8737128   6.9352616  29.2277315  75.3557505
   7.9484867  28.7379179  74.3436031   7.4884548  51.1722115  42.7829284
   6.8404217  51.8171232  42.4994256   7.7729457  50.7469586  41.9739434
  30.4404868  48.4179766  11.2020134  30.6520795  47.5498128  11.5451633
  31.0116680  49.0131691  11.6875336  16.5691552  63.6101208  10.8089475
  17.4324196  64.0231489  10.7885963  16.3253532  63.6102240  11.7345783
  61.9918372  23.4039517  46.9096959  62.5392736  24.0974963  46.5415366
  62.4990956  23.0643795  47.6469960  49.4960360  15.5444088  32.7875124
  49.4360393  16.2082214  33.4745241  50.2355344  15.8242394  32.2480045
  39.4909771  17.8163343  84.5894229  39.5754931  16.9093597  84.8835081
  40.3891451  18.0948339  84.4106375  84.8830719  34.7598850  31.7338420
  84.7389091  33.9728254  31.2084981  85.7733349  34.6625526  32.0717620
  45.6284908  16.5598680  22.1863335  44.7862003  16.3242994  21.7973785
  45.8530273  15.8132792  22.7416896  58.8642290  55.9459409  30.1106326
  57.9528149  56.2007042  30.2543403  59.3595518  56.7580891  30.2169450
  60.8965077  48.9048258  76.4787405  61.2830745  48.0659903  76.7300431
  61.6317023  49.4152720  76.1393804  20.7662342   5.4163676  85.2566736
  20.9823422   6.3183433  85.4932510  20.4249983   5.4779594  84.3644873
  30.2433748  27.8483505  69.6926451  31.0054451  27.8157399  69.1143569
  30.3333302  28.6783767  70.1608292  36.9609724  42.4413649  87.2750197
  37.6677769  42.0373176  87.7784133  36.5756395  41.7182365  86.7802108
  58.6914440  13.3825087   4.6788867  59.4354563  13.2454877   5.2653190
  58.5545366  14.3298583   4.6829911  78.1818785  51.2242844  10.1548694
  78.4728950  50.3173206  10.2495155  77.5116483  51.3324232  10.8296504
   1.9028601  35.5546319  17.8780083   1.6172832  35.3540148  18.7693166
   2.7188021  35.0654911  17.7721230  44.5724109   0.3419163  62.0805504
  44.0407790   0.2334739  62.8691185  45.4760570   0.2887365  62.3917215
  20.1638946  48.0660056  16.8010877  21.0506546  48.4029985  16.9288542
  19.6408221  48.8405100  16.5942785   1.4585665  25.8650142  65.9773046
   1.1744219  25.6138640  65.0984319   1.3640226  26.8173384  65.9965888
  85.9328973  66.8489602  74.4033832  85.1593866  66.4269852  74.0294177
  85.6054880  67.3057389  75.1782304   8.8911979  50.1299145  54.7840335
   9.0726089  49.7756630  55.6545665   9.0064540  49.3853296  54.1936598
  62.3673611  26.1810806  73.0740982  63.1730534  26.6659803  72.8953133
  62.6562481  25.4056993  73.5553050  38.0311668  61.4608021   8.3077884
  37.9095167  60.5233599   8.1573382  37.1484682  61.7940041   8.4691928
  54.7038378  30.8433832  36.8974953  54.3524417  31.5866804  37.3876605
  53.9789827  30.5596015  36.3404631  64.5618979  37.2391198  81.6569095
  65.2685185  37.6365342  81.1480078  63.7823376  37.3518804  81.1130322
   2.7299898  34.4203812  23.2470867   2.1935534  34.5781229  24.0239943
   3.0560537  35.2861343  23.0013516  29.9706682  49.0268860  43.4353940
  30.1929558  49.8400593  43.8887915  30.3361562  49.1346359  42.5573050
  28.8107641  61.7377554  59.8099898  29.4058669  61.0943156  59.4251915
  28.4270550  62.1888874  59.0580064  13.1747110  36.7961056  15.5339506
  12.7701857  37.6067479  15.8429009  13.8936836  37.0860555  14.9724890
  54.8803106  15.6736673  45.0423018  54.7665984  15.9616183  44.1365504
  54.0222569  15.8062425  45.4452898  77.7368269   6.9494237  16.8923327
  78.2039177   6.7760256  16.0750255  78.3226619   6.6252877  17.5764124
  78.0493111  57.1187623  67.6571264  78.1815029  56.5311170  68.4010552
  77.6115023  57.8835365  68.0308585  67.7721020  53.8299799  10.2697731
  67.3842775  53.5977068   9.4260473  67.8358858  52.9991900  10.7408905
  39.1969793   5.6118150  47.8857017  39.8811029   5.1503543  48.3707386
  38.9436295   5.0033976  47.1915303  49.5836933  35.9636227  71.6891294
  49.9186607  35.1748409  72.1155704  50.0318927  35.9875335  70.8436843
  52.1154662  49.0661893  18.2832067  51.5634589  48.2965420  18.1447770
  51.7688478  49.7215658  17.6777572  46.2279189   3.2653294  20.2642404
  45.5301782   3.4543095  19.6368041  46.5631071   2.4088879  19.9989319
  38.0986419  41.4040413  78.6849620  37.1463773  41.4806307  78.6253124
  38.3565294  40.9797346  77.8666163  85.9024600   7.6913714  29.1290287
  86.4316440   7.2882617  29.8172865  86.1214691   7.1979862  28.3385618
  62.5380943  64.1936256  66.2071621  62.3859077  64.4055563  65.2862080
  62.9382573  64.9830893  66.5716458  37.3016618  48.7618861  58.5009840
  36.7078819  48.3555622  57.8696694  37.5361158  48.0529624  59.0998917
  69.0179707  42.0934106   6.1816329  68.5694737  41.5718131   5.5160366
  69.8967900  42.2292655   5.8274411  29.7141499  38.8363771  64.3367827
  29.5349811  37.9011509  64.4341599  29.5470789  39.2038907  65.2046841
  70.9090298  56.2362662   3.8050000  70.5153583  55.3930106   4.0289969
  70.2269036  56.6967612   3.3162464  25.7776906  31.2632220  88.5004528
  24.9324952  31.6758134  88.6783432  25.5977182  30.6438122  87.7932235
  75.0290051  68.7961565  88.5846613  75.8873722  69.2130647  88.5096594
  74.4183556  69.5242228  88.6998067  56.3230382  55.8076695  28.3467261
  56.7474229  56.6652430  28.3203233  57.0463922  55.1814661  28.3173969
  35.6052047  27.2944561  15.0339637  35.5506774  26.7245015  15.8010428
  36.4664346  27.1099094  14.6591871  86.2947377   6.6207358  76.6105872
  85.4871053   6.2062502  76.9141715  86.1158482   7.5596934  76.6614688
   6.6094504  51.8589604  36.2753273   6.5726844  52.7941913  36.0747699
   6.7826778  51.8223589  37.2160103  63.2871840  66.0329885  39.3439178
  62.3901484  66.1650529  39.6507045  63.4896554  66.8258562  38.8473314
  66.4536884  11.4697341  59.2282599  66.5704568  12.3066405  58.7786104
  65.8726139  10.9691603  58.6555383  41.2915364  14.1773629  23.8209097
  40.9742243  13.6426589  23.0931483  41.0970135  15.0773878  23.5594754
  49.0943726  43.0287085  21.2813374  48.6350488  42.9745567  22.1193834
  48.4143041  42.8763637  20.6251897  18.1290083  43.9103498  73.4895106
  18.5494243  44.7121051  73.1785912  17.2105904  44.0085854  73.2383330
  56.2556957   5.6565955   4.1440724  56.7177157   6.3288749   3.6432634
  55.7971570   5.1381477   3.4828719  52.2677385   3.4631862  25.3593848
  51.6446016   4.1622618  25.1613302  51.8306568   2.9348492  26.0272556
  27.4856440  44.2058975  66.5489172  28.1890360  44.6341867  66.0610237
  27.4523678  43.3184348  66.1917975  81.4602741  42.7973153  10.4558132
  82.0974244  42.8091169   9.7415779  80.8106963  42.1478509  10.1865984
  37.3535637  46.3756061   2.7576848  36.4691827  46.0355184   2.8934878
  37.8672632  45.9992424   3.4723141  67.0971324  15.2795406   6.6308015
  67.6700744  15.0126019   5.9119740  67.3837732  14.7499726   7.3748624
  25.5498439  67.5673106  86.0924360  24.7848739  68.1334190  86.1952659
  26.2528653  68.0293715  86.5490457  63.3858118  66.3023099  55.2295116
  63.1588130  65.5617980  54.6670656  62.6422875  66.8999246  55.1503910
  35.0291780  50.2435894  25.2076416  35.8722363  50.6894223  25.2896018
  34.9797447  49.9923937  24.2853136   3.1027843  70.4676739  56.8198323
   3.4859422  69.8442706  57.4369143   3.7980313  71.1063429  56.6618279
  41.0634638  50.5122995  23.3602166  40.4298860  49.8364858  23.6012287
  40.8588126  51.2488390  23.9362889  66.0668961   6.8142035  40.0108263
  66.1224732   5.9782563  39.5478626  66.6334902   7.4025253  39.5117468
  49.3561304  66.4670108  25.8398317  48.8949182  66.5903020  26.6694789
  50.2162188  66.8619802  25.9829364  20.2487891  48.1422588  20.4142030
  21.1944278  48.0451899  20.5263496  20.1534563  48.8814308  19.8135632
  28.3267833  23.3771723  78.5503638  28.1789812  23.5006858  79.4879835
  27.6475833  22.7591693  78.2801945  64.6065341  54.3947165  16.5817869
  65.0321066  53.9412942  15.8541000  65.3067038  54.9055855  16.9879976
  67.8767691  12.8871184   1.0117446  67.2771057  12.3953557   1.5728195
  68.3583006  12.2153288   0.5289838  11.8775797  54.7208131  45.9390455
  11.8853162  54.5393648  44.9992325  12.4165416  55.5059128  46.0358470
  82.5946685  52.1288714  17.2963836  81.7561487  52.3842711  17.6809449
  82.8899146  52.9085844  16.8261609  41.7535551   4.1634416  21.6242891
  41.7785549   3.6748851  20.8015379  42.6129783   4.0134203  22.0181383
  58.6082420  46.9975344   2.6860382  57.9543145  46.3181622   2.5215263
  59.0318958  47.1324725   1.8383702   7.4451348  20.6465660  61.2331977
   6.6033209  20.2973001  60.9406324   7.8587042  20.9749227  60.4348406
  39.3885566  58.7053663  41.7919248  39.7295094  58.9771008  40.9397844
  39.1081963  59.5202182  42.2086336  27.5071947  27.1229387   2.5960268
  27.1632411  27.7811743   1.9921612  27.0126273  27.2578025   3.4043872
  41.1515755  36.1340202  54.6460511  41.4231290  35.7018938  55.4558396
  41.9062643  36.0474368  54.0636595  31.9026360  71.6669880  73.9459877
  31.2421413  71.0029252  73.7485056  31.7047066  71.9429550  74.8409167
  69.9586626  46.0440418  68.0704893  69.6306533  46.6813919  68.7048603
  70.9100780  46.0736205  68.1713143  54.9667860  36.0154925  72.5479545
  55.0052112  35.5591800  73.3885105  54.5863542  36.8688811  72.7558757
  24.5161264  57.8457614  34.4755148  24.9097900  58.1227338  35.3028884
  23.7146651  58.3644849  34.4061064  61.6092959  41.6060056  56.7318312
  60.7400423  41.4165739  56.3786377  61.4394941  42.0003760  57.5873259
   3.1221941  21.9431182  77.5727903   2.5113491  22.6594281  77.7459966
   3.9646420  22.3753791  77.4325626  51.9918516  46.2398756   3.6806874
  51.6730389  46.4180749   2.7959076  52.9269205  46.4410904   3.6433957
  23.2961986  35.5720622  62.0658273  23.2168935  36.3806878  61.5597966
  23.0547052  34.8797784  61.4504771  28.0975195  17.7786336  17.5489175
  28.2323697  16.9867443  17.0283807  28.9785984  18.0466369  17.8098889
  62.0779494  57.7622338  81.3427223  62.7568097  57.8901195  80.6801321
  61.5787091  57.0071653  81.0314949  59.2853057  32.1460027  77.4940861
  58.8437914  32.7651648  76.9127640  58.8120208  32.2165776  78.3230930
  10.6216139  64.8588992  21.9352962  10.3606603  65.4734617  21.2494041
  10.7661844  65.4075967  22.7061803  60.8303373  29.9335988   3.5006970
  60.2660861  29.4019538   4.0621292  61.6074525  29.3924900   3.3609647
  63.3267790  68.9547390  59.5813734  62.4138138  68.8522800  59.3126198
  63.8256528  68.4679887  58.9253010  36.3346146  47.6090273  75.0525867
  37.1588435  47.2581555  75.3898813  35.7165005  47.5059949  75.7761550
  60.0175641  60.4317023  23.0605819  59.2845250  61.0433143  23.1299817
  60.7750787  60.9860303  22.8731679  12.2109833   2.1747716  22.0951248
  13.1618329   2.0674782  22.1197225  11.9317203   1.6626726  21.3361790
  76.0518347  51.7188759  78.4151296  76.1247291  52.5835891  78.8190967
  76.5675186  51.7857102  77.6114910  37.6731089   6.7142535  88.9069084
  38.2464946   6.3703604  89.5918888  37.0649239   5.9986003  88.7220209
  56.0763484  13.1391218  44.2375728  55.6352665  13.9886268  44.2420321
  56.9899385  13.3446439  44.0392153  65.6451521   5.1334518   3.7407538
  64.8187774   5.5442704   3.9948498  65.4596297   4.1944857   3.7532414
  71.2964407  45.0649320  74.2821894  70.5640702  45.3389143  74.8342755
  72.0465860  45.0366165  74.8760852  79.1516432  55.5141069  49.0850838
  80.0459407  55.3987806  48.7638929  78.6729329  54.7623440  48.7359122
  45.5825120  59.8892306  62.8388436  46.3994103  59.7130310  62.3720860
  44.9013549  59.5182164  62.2779468  77.3774947  18.6913346  24.5172328
  76.9303162  19.0688537  25.2746908  77.3288492  19.3723981  23.8463991
  66.7313313  65.7383542  83.0369848  66.8481631  66.5679088  82.5739284
  65.7922475  65.5621510  82.9794877  53.9455704  24.9184459  66.0250669
  53.2086321  25.3578310  66.4494424  54.3941511  25.6137704  65.5438903
  38.6804958  29.8298578   1.4940461  38.1495908  30.5659959   1.1899534
  39.5525806  30.0003753   1.1382038  14.2986565  33.5906438  23.6635409
  13.9207400  32.7646444  23.3616534  15.0759240  33.3316679  24.1585344
  59.5235121  14.0243565  25.5310042  59.3217795  13.3285562  26.1566221
  59.2256550  13.6823070  24.6880836  62.1720735  41.8101391  79.0937155
  61.7356890  42.2320807  78.3536036  61.5962936  41.9793271  79.8394264
  68.5485544   2.3277331  15.8265308  69.1798663   2.3515438  15.1074271
  69.0783151   2.4492371  16.6144535  48.3975342  47.5189110  45.4445824
  48.2463862  46.5743832  45.4091816  49.2701678  47.6076293  45.8278205
  58.5296715  25.7757859  53.7674031  58.4872615  26.7289638  53.6906891
  58.0609713  25.4524837  52.9979698  68.8744516  63.6604813  34.2215353
  68.1919715  64.0179547  33.6534987  69.0072584  62.7674539  33.9035790
  26.2049684  58.3441242  11.4560293  26.3583457  57.4818315  11.0698190
  25.8682538  58.8737963  10.7333243  62.3680349  49.6469155  15.1416530
  61.9043570  49.1575600  14.4621196  63.0114994  49.0275489  15.4859936
   2.4137938  67.1080217  50.6583508   1.7810288  67.0077878  49.9471593
   2.3095283  66.3156587  51.1851539   9.4440830  66.7565965  71.0424422
  10.1325863  66.6676660  71.7014463   9.7489022  67.4616000  70.4712267
  84.8306642   8.6002733  36.4303988  84.2327259   9.2811720  36.1220508
  85.5671934   8.6339254  35.8199694  49.5935705  12.4219813  27.5343060
  50.3268205  12.5532561  28.1354243  48.8406247  12.2681617  28.1049582
   4.4331659  51.7650898  46.6630922   4.3686974  52.0541832  45.7528721
   4.8868308  52.4798192  47.1098381  55.3442291  46.3010988   5.9537855
  54.6005191  46.8110551   6.2748336  54.9844595  45.7776996   5.2376494
   6.5890810  71.3950623  49.3488248   7.0438695  72.0490649  49.8795600
   7.2830436  70.9728311  48.8424962  66.7102380  58.9753509  65.6061221
  66.8780807  58.0345155  65.5523685  66.7110854  59.2711908  64.6957870
  46.3772759  68.8738282  14.9139813  45.6391018  68.3088963  14.6855455
  46.8603668  68.9797966  14.0944535  43.4910830  53.7142384  65.4299363
  42.9935665  54.0918734  64.7046081  43.3310709  52.7727051  65.3655700
  47.2046107  62.9323785  45.1848250  47.0926915  63.8715551  45.3319755
  47.7337242  62.6353338  45.9251190  69.7349580  24.7323476  30.3693800
  69.2695698  24.6312137  29.5390683  70.2825071  23.9498778  30.4339004
  38.6632550  61.0054487  49.8473111  38.4255001  60.1066570  50.0750786
  37.9257399  61.3236897  49.3267096  67.8830664   7.4815129  27.6668801
  67.4335255   6.7179931  27.3046891  67.8892553   7.3298179  28.6119633
  79.4618700  69.3380782  55.5885480  79.9652849  70.1381178  55.4377443
  79.9928886  68.8335270  56.2047291  16.3866140  53.2078844  39.2093616
  16.6107206  52.8329282  38.3576481  17.2219575  53.5115138  39.5646676
  71.4157027  27.6531203  45.3682208  70.8164853  27.1311878  44.8345948
  71.6587375  27.0744511  46.0909296  27.5763763  48.3598591  10.7831776
  28.5036433  48.4085722  11.0156314  27.5737210  48.2284527   9.8350441
  50.5849089   0.8856838  51.5969801  51.5249622   0.7839648  51.4480346
  50.5194711   1.2311861  52.4872485  34.8006701  47.8701330  53.0525342
  35.2983615  47.2038225  53.5264175  35.4676535  48.4385670  52.6675048
   0.5718613  63.7721359  77.2175883  -0.2925902  63.3651323  77.1601129
   0.8149366  63.6889355  78.1396642  43.5844769  62.0425104   1.9238817
  43.4340459  61.4812274   2.6845154  42.8334614  62.6358579   1.9117854
  52.8621054   4.2139957  70.2655149  53.1953377   5.0181657  69.8673958
  52.5650236   4.4824392  71.1349471  75.6086846  47.8736163  78.9936273
  76.0249781  47.2893440  78.3599416  74.6801173  47.6441590  78.9569683
  28.6721822  46.1686437  79.0117809  29.4285642  46.0699914  79.5900419
  28.7940868  45.4965611  78.3412020  29.3637148  43.1032634  70.5729761
  29.6647065  43.5172086  69.7640971  28.6537841  42.5241006  70.2958466
  45.2085114  38.2787774   7.1424500  44.4934701  37.7204282   6.8371732
  44.7820340  39.0979134   7.3941743  74.1173011  33.4249853  72.9773851
  73.9558838  33.9770662  73.7424883  73.5945297  32.6387478  73.1347778
  51.8678616  67.1863136  51.6862706  51.1227678  67.2007667  52.2869854
  51.4725263  67.1654699  50.8147734   8.1343988  43.4366253  70.9027406
   7.2239253  43.7264534  70.9599205   8.4798707  43.8833537  70.1298792
  28.7881593  55.6817019  59.6183951  29.5471555  55.3731901  60.1133468
  28.0828514  55.7254540  60.2640408  61.7766673  68.6645331  87.5346253
  61.3032648  68.9185183  88.3268459  61.8190205  69.4663179  87.0134927
  38.3055136  56.6207399  88.7177421  37.6223118  56.8703398  88.0955146
  37.8487532  56.5390901  89.5549607  69.8423029  12.0710506  86.8135049
  70.6791581  12.4554603  86.5524794  69.1834331  12.6225136  86.3915914
  21.4631182  38.2896923  32.1547440  20.8043303  38.4125764  31.4712751
  21.7891815  39.1715220  32.3344405  67.5342737  48.3285380  17.8339425
  68.2713383  48.9040876  18.0381735  67.7540382  47.9509898  16.9822426
  79.4926974  32.6929135   6.9103079  79.9667924  32.8474660   6.0932527
  79.9699059  31.9787109   7.3327041  71.2414894  57.7539381  18.4667356
  71.4873651  56.8881664  18.1408273  70.2851043  57.7617078  18.4280190
   5.1653142  44.8736855  28.8123166   4.9343600  45.7121344  29.2121858
   5.5830469  45.1102559  27.9842068  79.6218008  52.3992431  50.3365004
  78.9092056  52.9951926  50.5673341  80.1375506  52.8815519  49.6902711
  41.5723831   4.0966091  81.7136993  41.1921653   3.6426043  82.4657272
  42.5148820   3.9525397  81.7983850  37.6956960   4.8135542   3.6742803
  37.6561687   3.8571708   3.6746383  38.1979688   5.0322177   2.8893343
  13.1967648  33.1924442   7.5254656  13.0683095  34.0278748   7.0762588
  13.9486465  33.3418497   8.0986879  38.5800549  13.6642208  78.2041167
  38.3694315  14.5599116  78.4679492  38.8547900  13.2343058  79.0140091
  26.0598033  45.4111549  24.5378371  25.3286814  45.9252686  24.1952299
  26.4860749  45.9916192  25.1683809  79.1164267  65.9472547   6.6937756
  78.4358522  65.6438703   7.2946150  79.2185246  65.2315189   6.0664558
   4.5718067  37.5446976  75.9675690   5.1000431  37.0696661  75.3260526
   4.7280864  38.4681227  75.7698455  47.7188232  29.8793172  87.6916219
  47.5949804  29.1447659  87.0905152  48.3935452  30.4169697  87.2769996
  64.3696274  69.3676722  54.6496768  64.3925025  69.6026392  53.7220459
  63.5017275  68.9850707  54.7785088  81.3215603  43.1486035  40.0585746
  81.4493082  42.5435995  39.3279020  81.5493819  44.0069651  39.7014408
  23.1393975  42.6586567  49.8486579  23.1172904  42.4568981  50.7840918
  22.4437592  43.3047150  49.7264779  81.1643380  49.1146749  23.3465548
  81.4816393  48.2512817  23.6113263  81.6807038  49.3319641  22.5704210
  52.5600746  40.7501044  46.8960072  51.7248956  40.8777521  46.4461027
  52.4012099  41.0587250  47.7880538  39.8119646  44.6705481  58.1134196
  39.7713391  43.8416368  57.6364632  39.4051136  45.3059827  57.5244145
  65.3257290  63.5378638  50.9172455  66.1674095  63.5523367  51.3728729
  65.4298889  62.8664843  50.2429814  60.7594114  28.6554363  56.3856911
  60.6803020  28.9016816  55.4640964  61.3696773  27.9180037  56.3850331
  19.6292278  27.5473097  73.8521116  20.0570756  27.1205659  73.1097722
  19.5505044  26.8581622  74.5117404  60.5961547  20.8204595  11.2588101
  61.0504331  20.1989559  11.8276653  59.7959039  20.3650203  10.9972653
  24.7629597   8.2169171  72.2981317  23.9903741   8.3947447  71.7617357
  25.2832535   7.6077934  71.7742094  25.9368965  42.6308609  49.2999124
  26.3785563  42.4052476  50.1186108  25.0218419  42.7603298  49.5492009
  33.9236716  64.9693078  20.6328674  34.5114385  65.5079776  20.1031536
  34.4556907  64.2163824  20.8903378  58.3955973  69.8323620  82.4778700
  58.1663937  69.1999557  81.7968709  59.2589277  70.1572475  82.2222493
  55.6893019  25.1139097  69.5378179  55.5774828  25.9912342  69.9039190
  56.6365684  25.0117606  69.4457118  77.9343780  57.4605008  46.8429222
  77.3962797  57.6436468  47.6130778  78.5036304  56.7403749  47.1142197
  85.7752248  40.4709801   6.4677563  85.6605822  39.5736559   6.1548696
  84.9011645  40.8572901   6.4128481  17.6814710  67.1954349  73.4813356
  18.1317333  66.3601270  73.3558108  17.3172479  67.1407992  74.3648448
  54.1358102   4.0839709  44.4330607  53.6769161   3.8212306  43.6351788
  54.2437397   5.0311131  44.3464314  36.1618727  31.2451075  86.7212796
  35.8986412  32.1276786  86.4604940  36.6139825  30.8935598  85.9543097
  10.9269734  38.2441439  32.1185436  11.6263951  38.8742912  31.9454665
  11.3679238  37.3946700  32.1322784  36.8372671  53.6804614   3.8251983
  35.9684029  53.5191809   3.4573731  36.7525359  53.4490067   4.7501205
  70.9167550   5.8581080  39.8835417  71.5374434   5.7702139  40.6069035
  70.5261482   6.7232345  40.0068880  53.0523954  69.9572966  39.2862647
  53.5185257  69.5878646  40.0362476  53.0529850  70.9012140  39.4451720
  70.2889860  70.0385782  17.0177770  69.9559516  70.3163378  16.1644485
  69.6196249  70.3228026  17.6401950  39.8480648  40.7981379  70.2650956
  40.3530567  40.0591010  69.9259209  40.4887040  41.3287916  70.7386144
  54.8546031  53.9218903  80.5941601  55.2498406  54.5351458  81.2137865
  55.0625477  53.0569617  80.9475570  59.1698500  46.2221018  34.4552297
  59.7172036  46.1251902  33.6759710  59.7457340  46.6274427  35.1035261
  45.8064895   6.1618148  50.9716515  44.9782840   6.3293030  50.5219235
  46.0785234   5.2989444  50.6591069  50.1673883  56.6072671  66.9060755
  49.9199423  56.2821327  66.0404601  49.5729547  57.3403900  67.0654850
  59.2944788   5.2597878  13.5236377  59.0047146   5.3256171  12.6137284
  60.1012277   4.7463525  13.4815396  42.8809932  46.3622040  16.5991659
  42.6898631  45.6296765  17.1849171  42.4728330  46.1175540  15.7686338
  65.2656360  42.1149938   7.9776676  65.3248633  41.4708324   7.2721324
  64.9277195  42.9039632   7.5539087  13.6146067  69.9542294  42.9330644
  13.1174472  69.1585410  42.7434745  14.5213593  69.6574338  43.0101612
  76.1962929  43.0218646  32.7210333  76.8985304  43.0712972  33.3696093
  76.2793687  43.8307061  32.2159535  24.9006445  31.9812196  84.4357851
  25.2577312  32.8562829  84.2841764  23.9915738  32.0392480  84.1417526
  40.2873862  30.3051286  17.1304452  40.1897686  31.2456560  16.9817479
  40.8147074  29.9994176  16.3924039  13.9714369  36.0319958  65.1576643
  14.8767683  36.1712426  65.4355441  13.4468945  36.2708962  65.9218722
  72.5741654  55.1775927  18.4865462  73.0443836  54.4082999  18.1651193
  73.2000838  55.8960855  18.3958491  62.9006975  35.9308341  76.5515409
  62.2059498  35.5349431  77.0776851  63.7019926  35.7628179  77.0474529
  76.0130164  48.6967915  49.3834058  76.5708104  48.1682758  49.9541674
  75.1205081  48.4778191  49.6511967  81.4772204  48.8851255  77.5486033
  82.2816641  48.9797796  78.0586452  80.8394801  49.4358139  78.0027633
  46.0452702  28.1172559   9.5492291  46.9666693  28.3725838   9.5038065
  45.5835338  28.9253793   9.7727637  59.3950370  40.8157397  43.8248612
  59.3530479  41.4641387  44.5277463  59.0875104  41.2837609  43.0485781
   6.5072715  25.0312438  38.2242016   6.0496534  25.0348504  39.0649183
   5.8079000  25.0137211  37.5708990  53.2250821  47.5334186  42.3954037
  52.8613590  46.6679635  42.5822857  53.7659280  47.4028314  41.6165170
  46.4968820  71.2200509  36.4377882  46.1409185  72.0973334  36.2967305
  46.3164986  71.0336783  37.3591779  82.1360088  21.8463675  83.8414782
  83.0082618  21.8312036  83.4475535  82.2050349  22.4843146  84.5517534
  59.5351272  44.6238197  60.9237771  59.9924934  44.6101185  60.0830273
  58.7084456  45.0697625  60.7394827  67.7801026  58.0756863  36.9794027
  68.1568448  58.4891482  36.2026489  66.8396042  58.2371069  36.9043165
   8.1122678  69.8897175  56.8748672   8.7761616  69.7544438  56.1987179
   8.5330566  70.4675342  57.5114962  60.8794623   0.1875655  60.3995532
  60.2205015   0.3302838  59.7201167  60.4702435  -0.4318850  61.0037493
  69.3549919  26.1407934  33.0338477  68.7807313  25.6420259  33.6149566
  69.3903261  25.6228298  32.2296730  74.1463746  42.3721084  24.4292948
  73.8403568  41.5439016  24.7989684  73.8581581  42.3481368  23.5168320
  70.8072076  67.8667910  18.3411157  70.5499604  68.6251385  17.8167449
  71.1335277  67.2332768  17.7020486  74.0925663  38.4812346  44.5067310
  74.4234998  37.6485866  44.1699638  74.1881370  38.4104162  45.4565114
  59.9310924  40.3299884  21.9071061  60.2437264  40.1045397  22.7832709
  59.0224215  40.6003395  22.0392399  46.0001701  41.5886738  28.6058830
  45.2656789  41.8199666  28.0373249  46.7036057  42.1815967  28.3415865
  42.7640892  64.9301084   9.5891537  42.1343898  64.3492569   9.1621618
  42.9765950  65.5839902   8.9231869  26.0567933  34.1389309  82.7771895
  26.1691071  34.3875510  81.8596899  25.3028974  34.6491708  83.0730410
  36.9525552  48.8855936   8.7220506  37.2061315  49.1206599   7.8294843
  36.1005920  49.3036676   8.8469692  58.7733692  45.0297000  47.3847653
  58.9069186  45.9435442  47.6363309  59.2655221  44.5280059  48.0346271
  74.6287830  41.0610091   0.8440743  75.0973267  41.8353325   1.1557184
  75.0020064  40.8868548  -0.0199896   6.4244749  36.8157163  78.6229709
   7.1410554  36.3403086  78.2025761   5.6621742  36.6353876  78.0728700
  74.7350544  22.3379678  49.8695684  74.4581861  22.6898762  49.0235564
  74.5636167  23.0455516  50.4909910  56.8607375   8.8203339   7.2320451
  56.8573472   9.6583771   7.6945426  56.7385885   9.0540827   6.3118967
  69.7773497  43.7505531  77.0666508  69.6522183  44.5669276  76.5828051
  70.5299833  43.9207735  77.6330424  26.8583405  39.5010241  14.5051375
  27.0181117  38.8600050  13.8124619  26.0141676  39.8918887  14.2796848
  78.2001669  55.4972816  51.7698579  77.2913006  55.6059854  51.4898984
  78.7182482  55.7651910  51.0108795  29.5674156  65.9972793  55.3225821
  28.8282066  65.4163437  55.1428162  29.3346270  66.4347101  56.1415421
  36.8101166  12.5854922  71.3741856  36.2299348  12.4930932  70.6184851
  37.5129494  11.9554784  71.2149989  26.7068035   4.2134330  16.5481202
  26.0855685   3.5405318  16.8265137  26.1682990   4.9914621  16.4034984
  38.6216284  70.8281676  52.9062201  38.0439656  71.3307659  53.4806176
  38.0274824  70.3153196  52.3583066  48.2163079  11.0947273   5.8390478
  48.8716081  11.1211219   6.5362686  47.9903926  12.0125088   5.6878149
  47.7996871  56.6274186  27.6809402  48.1881103  57.0857690  28.4261074
  47.3711298  57.3162723  27.1729530  79.7386152  13.1981381  61.8577453
  79.9858620  14.1219637  61.8983307  78.8267337  13.1812595  62.1482950
  20.8423154  59.5849235  60.3037726  20.0019588  59.2148653  60.5741234
  20.6339502  60.1161969  59.5352908  85.3599493  26.8453221  18.2539863
  84.8670901  26.1518484  18.6926387  85.2544022  27.6094360  18.8207505
  23.3290890  23.8769401  13.7720664  22.4401489  24.0357279  13.4545702
  23.8944392  24.1655764  13.0556168  73.3938891  53.4358763  78.5316612
  73.4132338  53.0103805  77.6744501  73.1271510  54.3362515  78.3461699
  72.6531533  11.7207672   4.7850574  73.1075865  11.1634950   5.4168564
  73.2695961  12.4305193   4.6048298  58.0945229  64.3337439  71.4254955
  58.5758713  64.9298643  71.9992341  58.1276110  64.7509669  70.5646459
  54.7272672  19.9628976  67.9884285  54.6253559  20.8451224  67.6313215
  55.3488105  19.5361201  67.3987025  23.1061752  49.1174621  75.8862086
  22.6088695  49.8968019  76.1342980  22.7138035  48.4100286  76.3978863
   8.0087827  61.1192154  19.5707436   8.8956421  60.9656807  19.2449533
   8.1355702  61.5228330  20.4293760  50.0129999  10.5651172  67.9599528
  49.2253443  10.0473842  68.1266355  50.4064969  10.1604049  67.1869068
   4.9276643  29.6940693  66.9930795   4.6962195  29.8270972  66.0738577
   5.4094121  28.8669779  67.0014957  28.2736399  49.7835274  82.8532896
  28.0751558  48.8653046  83.0368728  28.2064013  50.2177603  83.7036734
  17.8584690  67.4184403  65.4551526  18.3181255  67.1007449  66.2323382
  18.2717936  66.9554330  64.7264422  40.5498779   3.1551215  45.8692346
  40.9433958   3.9940456  45.6292727  39.6237063   3.3551242  46.0050172
  72.3528953  64.4455256  75.0084895  72.3805002  65.2413071  74.4772630
  71.6916289  63.8978931  74.5853378  67.2759420  48.6308096  47.6928307
  67.6462601  48.7366057  46.8165297  67.2455748  47.6835832  47.8272620
  55.7456287  21.4383981  13.7519673  54.8725332  21.2216445  14.0790054
  55.5844980  21.9883196  12.9852502  10.9389973  53.2669264   0.2619193
  11.4465364  53.7151637   0.9384688  10.2086675  53.8581006   0.0792630
  51.8210196  25.7153659  42.5843181  52.2947294  25.9088888  41.7753807
  51.9232469  26.5044793  43.1163720  73.7339051   3.3152204  48.1717621
  73.7971868   4.1333276  48.6646392  73.8973760   2.6311688  48.8210560
  46.6543810  28.6507958  58.9592120  47.5605234  28.3447280  58.9974262
  46.5718480  29.2482988  59.7024552  36.6267584  51.4545831  75.3412561
  36.4064624  51.2209381  74.4395291  35.8377840  51.2471818  75.8419916
  34.3822219  49.9764207   8.4931935  33.7708067  49.6290107   7.8438018
  33.8296333  50.2216555   9.2353105  23.3976094  62.4842089  29.0248479
  23.5585130  62.3053284  28.0983795  22.7127098  61.8633610  29.2732271
  64.4266839  54.1999584  64.6422891  64.1647464  54.7996646  65.3408398
  64.8649537  53.4802311  65.0963200  21.4902950  14.0928485  75.7383447
  21.2364863  13.3357784  75.2104642  22.3650156  13.8770110  76.0616245
  10.8084949  40.3484731  21.6193909  11.3397733  41.1424167  21.5591522
  10.9364090  39.9102808  20.7780483  35.2516914  68.0759166  87.7115655
  34.8391187  68.2163444  88.5637953  36.1578295  68.3587668  87.8346159
  56.0226752  57.8427020  48.3636520  55.6823891  57.5761881  47.5095985
  55.6850985  57.1851084  48.9718003  30.1300434  44.7591502  68.3756864
  29.7686792  44.8915992  67.4992704  30.2025489  45.6410626  68.7406594
  73.1222988   1.7039258  29.3929682  73.1461034   2.4816668  29.9504483
  73.8843647   1.1918305  29.6636078  19.6192213  52.4078473  57.4252407
  18.7198573  52.5411274  57.7245944  19.5434039  52.3073367  56.4763565
  26.0067786  17.3344734   0.3554260  25.2791006  17.8685015   0.6740646
  25.7636348  17.1097325  -0.5426856  69.8022053  19.8062987  65.0049685
  69.4463311  18.9821469  64.6727647  69.5040554  20.4657429  64.3784927
  60.5634991  11.1770159  12.7050775  60.2779216  11.1567480  11.7916955
  60.0336023  11.8657262  13.1064742  51.6837647  71.4644832  89.1294307
  51.2547396  72.3084761  88.9885577  50.9959078  70.8172422  88.9739835
   3.1998144  54.3795212   4.4327694   2.3052249  54.6948101   4.3041839
   3.2890647  53.6537183   3.8151316  78.0903818  44.9758944  50.7613972
  78.9906466  44.6822909  50.9012256  77.9908885  44.9984036  49.8096482
  28.4056830  44.5300747  84.6414449  29.2204902  44.6429329  85.1309183
  28.6670204  44.0690715  83.8443184  20.2059523  22.6750717  18.0585001
  20.7536503  23.1796590  18.6598738  20.6577956  22.7335549  17.2166870
  81.7464208   8.8945164  18.4010152  82.6484934   9.2119580  18.4425806
  81.2208351   9.6223934  18.7329588  48.0632640   5.8649861  79.8194895
  47.7916389   5.6827413  78.9199127  48.8376160   5.3179725  79.9513489
  34.8853717  39.3962326  33.0187934  34.2217160  39.8735727  32.5208584
  34.7723154  39.6987208  33.9198767  76.4558591  27.3483168  82.8429233
  76.7590963  26.6353436  82.2808306  77.2484729  27.6659844  83.2754538
  64.4471567  27.6410409  58.8836569  65.2211644  27.2322085  59.2709551
  63.9847650  26.9206456  58.4553389  60.7253526   2.5931421  61.9881955
  60.7433457   1.6393416  61.9096282  60.0536423   2.7665084  62.6477266
   2.8061402  20.4674048  28.9772787   3.0961228  19.6976613  29.4668059
   2.9340616  20.2294441  28.0589962  73.5559338  62.6118728  17.2212374
  72.9758405  62.7905431  16.4811018  74.4351896  62.7805528  16.8825810
  51.6615046   6.2314340  16.0027706  52.2843953   5.6288691  16.4091627
  52.2054061   6.8248070  15.4847827  41.3617908  35.6627266   7.5293507
  42.0064942  36.0815309   6.9590944  41.0885967  36.3551974   8.1310824
  64.9873993  43.3964244  79.7957388  64.4161107  42.8617310  79.2444093
  65.8249889  43.4078799  79.3325495  74.5277232  27.6495662  43.9725180
  74.0999546  28.2117989  44.6183819  75.2642729  27.2605043  44.4440655
  65.5753760  52.7958352  20.4542722  66.3041633  53.4150326  20.4954505
  65.5868263  52.4720017  19.5535877  38.3112999   7.3541754  86.1281324
  38.3409199   7.2552292  87.0797438  37.5236225   6.8796465  85.8623910
  12.5440593  22.6009952  85.2612981  13.3921634  22.1761230  85.3894963
  12.4216672  22.6098466  84.3119965  60.8411232  59.0751458  54.9106521
  60.9499874  58.6562459  54.0568938  60.0514180  59.6079142  54.8170816
  72.0562312  26.6994148  75.7676986  72.7127428  27.2735168  76.1621999
  72.3514900  25.8146533  75.9827596  85.7906120  61.3976952  17.0068046
  85.5968510  60.6123184  17.5185386  86.5161901  61.8138396  17.4721991
  41.7666971  53.1058150  13.0035415  41.2412608  52.4462654  13.4564686
  41.6500977  52.9081488  12.0742598  75.0216142   9.9000276  31.5074678
  75.4335828   9.5594839  32.3015356  74.2463553  10.3659161  31.8207623
  47.9508711  47.2086963  40.0124331  47.5510097  48.0752276  40.0863665
  47.4510309  46.7723361  39.3225191  55.9568663  62.2068674  22.7670716
  55.7820731  62.6030322  23.6207300  55.1710826  61.6950735  22.5751265
   9.7084019  62.6250631  80.6935012  10.1860153  63.4336562  80.5083136
  10.3915792  61.9791936  80.8733710  68.7688768  50.8427877  -0.1482008
  68.3833058  51.1811247   0.6599421  69.6920975  50.7074072   0.0652648
  54.2708922  58.0047413   1.1486569  54.4418276  57.1019117   0.8804935
  55.1284217  58.3454160   1.4032462  16.0746768   8.5028301  14.1586551
  15.2003879   8.2519515  14.4568342  15.9333871   9.2975338  13.6441504
  -0.2884632  44.1479957  79.0455340  -0.0606824  44.8841709  78.4777367
   0.5322384  43.6679462  79.1561372  56.7099772  66.1567882  78.1041101
  56.7069023  65.2018447  78.1697253  57.5840525  66.3716757  77.7784604
  45.4963853  48.9033559  67.3756002  45.2875075  48.1849435  67.9726643
  44.8121659  48.8659644  66.7072608  24.7763956  35.1680686  64.2109495
  24.0610681  35.4283175  63.6305970  24.4104875  35.2461287  65.0919998
  75.9972360   5.7209100  66.5373138  75.5802761   6.2200418  65.8350007
  76.7455438   6.2567355  66.8002932  76.7340101  46.8896473  24.6678234
  76.7657070  46.7614438  23.7197775  76.3459942  47.7575450  24.7793098
  23.7854518  69.5138527  85.5620281  23.2102951  69.9728055  84.9498280
  23.9983713  70.1684175  86.2271913  29.6130218   0.6319140  66.0644038
  30.2860153   0.5373044  65.3903410  30.0467642   1.1113164  66.7702882
  11.5082094  21.9888412  14.4168973  12.2508441  22.5759259  14.5585207
  11.2697243  22.1213362  13.4993997  46.1898346   5.6031627   5.7342612
  46.5956655   4.7401709   5.6519308  46.9084476   6.2200160   5.5952675
  50.7988916  29.6879898  12.4077404  51.0586102  29.8339055  11.4980774
  51.2141928  30.4011107  12.8927305  53.3684733  62.2061419  33.5564528
  53.9870434  62.8838909  33.8289579  53.6454386  61.9711750  32.6708385
   6.8123717  32.0088471  36.9258590   7.5175997  32.2408314  36.3216499
   7.0210218  31.1178956  37.2067548  68.0806662  46.4173687  23.1919224
  68.6454471  45.7899648  22.7406811  68.3689261  47.2722754  22.8721213
  23.3453124   5.2724225   5.3327958  22.8493168   6.0367099   5.6261982
  24.0413949   5.1747599   5.9825366  35.9153770  70.4858897   9.4108124
  36.0456762  69.9765514   8.6109196  36.2567315  71.3548772   9.1996969
  52.0830011   6.7646615  78.6091193  52.1418857   7.2928865  77.8130397
  52.9864158   6.6949781  78.9176932  57.3631190  60.4199766  68.1456557
  56.9529451  59.7165040  67.6425498  57.3743870  61.1671335  67.5474405
  17.3872501  45.7643525  79.8602361  17.1206824  46.5595091  80.3216465
  17.0542850  45.0495475  80.4028409  83.0343409  33.3723081  81.5849887
  83.5180726  32.9468368  80.8770271  82.1748671  32.9510826  81.5747131
  84.9018506  64.6019715  33.5430851  84.6337038  65.5083956  33.6938311
  85.3881053  64.6299325  32.7190666  12.6354520  53.7597881  54.6657212
  13.4059265  53.7214806  55.2324075  12.2361211  52.8935339  54.7455353
  40.9579160  17.5404156   8.3441759  40.1529227  17.0319099   8.2459940
  41.4213439  17.1179982   9.0673840  58.7307662  20.2174009  43.2137065
  57.9880007  20.6245974  42.7679236  58.3367209  19.7205664  43.9307250
  75.9886267  34.5500452  53.9420475  75.6030926  33.9828715  53.2742831
  76.4398958  33.9492989  54.5350837  57.8985037   2.5023488  55.9494328
  57.9851825   2.9016905  56.8150221  58.4436887   3.0449090  55.3796666
  20.5504694  66.3935090   2.2151272  20.3113276  66.9664387   1.4865707
  21.2996315  65.8936825   1.8908411  12.3027501  10.6192605   3.0663858
  11.4620827  10.1827424   2.9286825  12.3439840  10.7669986   4.0112165
   3.7319067  31.0051033  14.3940100   4.0600878  31.2469407  15.2600606
   2.9552122  30.4746410  14.5717379  46.8217866  44.2962818  28.2938231
  47.7457154  44.1234265  28.1129682  46.6378511  45.1171949  27.8372037
  60.1644778  19.9271188  85.5575383  59.9224948  19.0010116  85.5588149
  59.4543563  20.3608720  86.0306318  46.5288349   8.7914018  72.8437715
  46.6163221   9.5524076  73.4177470  47.1669667   8.9426601  72.1465336
  26.1164341  65.0134530  64.5524301  25.6557603  65.7958296  64.2492828
  25.4331143  64.4702388  64.9451441  11.9201518  46.8589800  46.0495918
  12.7517288  46.4195338  45.8718317  11.3656213  46.1775938  46.4296454
  56.9588925  60.5226402  46.6002102  56.8852971  59.6920747  47.0702916
  56.3174755  61.0943030  47.0221317  66.0330699  56.4205948   4.8377967
  65.1041617  56.2687108   4.6637489  66.2241060  57.2542462   4.4079566
  25.1872361  45.9303771  20.0211851  25.4180707  46.6480918  20.6109586
  25.9948419  45.4243287  19.9321923  86.6016788  63.6486095   7.4428366
  85.9856762  63.9432015   6.7720251  87.1749707  63.0320582   6.9873887
  23.1446235  67.2969794  88.8562336  23.7369915  67.7941194  89.4203114
  22.9604340  67.8857350  88.1243369  44.0890464  19.3608020  67.6240378
  44.2890396  19.0876341  66.7287089  44.1520346  20.3156918  67.6028307
  13.3332105  56.1338500  85.3737750  13.5751193  55.5288017  86.0749373
  12.4347732  55.8924462  85.1484609   8.2956891   0.9308064  18.1126483
   8.7992130   1.0756328  18.9137231   8.2019018  -0.0201807  18.0573370
  48.0043352  60.2856013  74.2838156  48.0938607  59.3870721  74.6014037
  48.0290441  60.2061688  73.3302372  20.9945962  36.0346715  23.6571466
  21.0670087  35.2999023  23.0479647  20.0570336  36.1055553  23.8365447
  55.6535215  34.3283815  35.2570240  56.0141119  34.6924773  36.0655045
  54.8013553  33.9752029  35.5125813  79.8857032  14.5191377  80.5311825
  79.2443957  14.0907387  79.9642337  80.0683731  13.8752380  81.2154753
  55.2046668  49.4861480  35.5435321  55.7074426  49.2298777  34.7703738
  54.3126465  49.6096299  35.2190574  33.8763598  62.0753743  23.6860466
  33.5733421  61.2548259  23.2973146  34.1015110  61.8446500  24.5873263
  60.2666379  56.2998076  73.4329187  59.8247406  56.8023857  72.7485403
  60.4035602  56.9287563  74.1413731  81.6867471  28.1337198  29.1664159
  82.5518704  28.0581610  29.5690129  81.1698024  28.6300665  29.8009550
  21.9128631  62.6169857  88.7136753  21.5819601  63.5006577  88.8744819
  22.2476955  62.6460240  87.8174187  24.5895563  45.0052387  60.8132022
  25.2340122  44.3258119  60.6149909  25.0149104  45.5538744  61.4722201
  61.9807603  11.4203171   1.3516508  62.0876927  12.3633282   1.4762602
  62.2398597  11.0370886   2.1896455  17.5448351  53.3836704  54.5650225
  18.4473117  53.0865514  54.4488843  17.0104937  52.6609304  54.2358447
  69.1204806  67.8727556  57.7761556  68.5304127  68.0502644  57.0436650
  69.3761028  66.9574825  57.6614199  49.6263324  40.6139995  58.9699739
  48.9530057  40.9830479  58.3984266  49.2629223  39.7768514  59.2586745
  67.1615604  40.0604873  63.3640070  66.7533150  39.2218916  63.5792388
  66.7744313  40.3067239  62.5239294  44.3233185  30.2745006  48.0828640
  45.2480932  30.2533939  48.3289902  43.9002577  30.7708138  48.7835240
  66.3631867  33.9798939   3.6396843  65.5315412  33.7083681   4.0281061
  66.1526510  34.1577838   2.7230264  74.2431892  60.8184585  14.1126920
  73.7525231  60.2997909  13.4751479  73.6914280  61.5837417  14.2743492
  55.7731777  67.3504238  62.1900094  56.1700694  66.5804496  62.5972545
  55.9470918  68.0630602  62.8049362  73.1173174   9.4824423  34.4122921
  73.8715068   8.9287965  34.2100387  73.1790220  10.2076858  33.7906441
  26.0851437  50.0144285  70.7483026  25.2990916  50.5605907  70.7561018
  25.8879646  49.3198501  70.1198815  34.9598605  57.5360121  73.1208204
  34.2109508  57.3978811  72.5409186  34.7825402  56.9780207  73.8780752
  52.3753725  48.7293771  48.7139872  52.2511417  49.5766935  48.2863734
  52.2715240  48.9146093  49.6473341  17.8898989  47.8374717   9.9847135
  18.0322969  46.9910319  10.4083813  17.0069693  47.7772234   9.6199707
  62.2533227  28.5033149   9.9181960  62.3684249  27.5533524   9.9417443
  62.4175699  28.7419374   9.0058835  76.7137557  35.1756693  57.8509465
  77.6272331  35.1303077  57.5685758  76.5578234  34.3408486  58.2925248
  50.5624769  30.8275820  70.2873978  49.6569946  30.7546134  70.5890751
  50.9419271  31.5164790  70.8329895  53.4580998  57.0424937  82.8763208
  52.5109585  57.1394751  82.7775791  53.7012173  57.7080750  83.5198480
  32.2937447   8.1067941  16.2726756  32.9143473   8.7686460  16.5776941
  32.5695830   7.3006909  16.7089584   5.6420829  12.0259469  11.1483577
   5.7407428  12.8071275  10.6040646   6.4186717  11.5004235  10.9560901
  69.5244426  49.1633515  11.7401453  70.3028994  48.7350519  12.0962300
  69.2462780  48.5955648  11.0214837  68.8434998  61.9058175  14.1735512
  69.0421471  62.5942275  14.8082660  69.2902258  61.1304897  14.5134548
  81.8585737  19.8616921  64.3595391  81.2243929  19.5633000  63.7076122
  81.6578271  19.3477586  65.1417188  76.1599718  29.8059620   3.0679457
  76.0075260  30.2890711   3.8801019  76.2179108  30.4830104   2.3937942
  57.9893826  62.0378416  59.7160319  57.8353437  61.3470972  59.0715351
  58.5629844  62.6596684  59.2682100  53.8960933  29.6472942  58.9215683
  54.7355094  29.1988443  59.0240632  53.8641958  30.2656529  59.6515319
  55.0992219  37.0342730   5.0457450  54.9776568  37.7684800   5.6477365
  54.7642121  36.2752025   5.5230419  65.5653943  53.4803603  23.8774465
  65.1548419  52.6173004  23.8244738  64.9165958  54.0274552  24.3201422
  70.4303591  34.0900360  61.7913762  70.8963647  33.7174904  62.5398951
  70.3546774  35.0220259  61.9960687  16.7855837  35.3102955   3.2414900
  16.7004261  35.4839700   4.1789426  16.0474464  35.7724573   2.8442600
  59.2217612  33.7609683  72.3331315  58.3542738  34.0900996  72.0978231
  59.7935462  34.5259840  72.2695342  65.1583524  48.2327021  76.9436133
  64.5181024  48.8525319  76.5941527  65.1212964  48.3590857  77.8917092
  36.4513122  20.4413153  74.6809318  36.7641196  19.5407791  74.7670599
  35.5007524  20.3743675  74.7714088  54.8794691  49.1823234  18.1257285
  55.0540850  49.9956202  17.6521364  53.9339252  49.0567873  18.0456080
  50.6227815  45.8524001  50.2549266  49.7418405  46.0815960  50.5509739
  50.4822027  45.3412084  49.4579621  44.3076455  52.0658198  50.4104487
  44.3869330  52.7031410  51.1202142  43.7378229  51.3829315  50.7642815
  84.5839800  51.5411788  24.1863346  84.3159685  50.8751157  23.5532772
  85.1147705  51.0649372  24.8248385  84.8563116  25.7731633  12.5872044
  85.6898231  25.5290021  12.9895424  85.0126960  25.6951929  11.6460899
  80.5281163  37.0056065  59.9462658  80.0232051  37.3792419  59.2239825
  79.9062612  36.4423765  60.4070262  64.9350593  62.1778300  38.1412949
  64.0154223  62.3674508  37.9554359  64.9278173  61.2941287  38.5090603
  64.5531476  36.6924993  33.9132526  65.4163583  36.8580512  34.2923194
  63.9367099  36.9973378  34.5790678  29.0308169  53.5375547  12.2829397
  28.3260841  53.5762375  12.9295363  29.1383505  52.6038933  12.1014330
  21.5173867  27.5113604   3.2914112  22.4212425  27.4225743   2.9890975
  21.5005281  27.0558843   4.1331291  76.9143194  57.3667087  36.6321752
  76.2809846  58.0359105  36.8915741  77.7375079  57.6485466  37.0311237
  31.9101934  30.5463731  21.5626756  32.1398432  30.8526045  22.4400097
  32.1149705  29.6114039  21.5741071  79.2111472  66.8591389   3.7005089
  78.7791440  66.5992985   2.8868210  78.5054271  66.8923759   4.3463311
   6.0865382   6.1599077  80.0831687   6.3150430   5.9327127  80.9845010
   6.6561208   6.8993003  79.8707867  79.5054025  70.6834363  40.8211776
  80.0585451  70.9253820  40.0783941  79.4905873  69.7264548  40.8070795
  78.6601203  40.6856656  86.1206730  78.3094486  40.0439128  85.5030855
  79.3585794  41.1266711  85.6370399  78.6063616   5.6922009  55.1404976
  78.7667162   4.7544024  55.0353684  78.1266275   5.9431290  54.3511168
   3.9457098   2.5041414  72.9486302   3.6642786   2.7417789  73.8321215
   3.2001387   2.0312756  72.5788281  49.2856445  29.5498127  18.1669166
  48.5765039  30.1567091  17.9547184  49.9756954  29.7581488  17.5371089
  19.1421773  24.3048318  81.1612408  20.0464227  24.4446239  81.4423639
  18.8386489  25.1714994  80.8910750  60.4932521  58.4483650  28.1062523
  60.1263273  58.9593770  28.8276847  61.0649454  57.8093975  28.5318332
  15.5487390  20.9382074  10.0899637  14.8072797  20.5481650  10.5529290
  16.2860817  20.8392260  10.6922596  49.6378296  11.7522373  74.7880071
  49.2533100  12.4857166  75.2679911  48.9077473  11.1496166  74.6463737
  47.8545271  63.8109248  63.4587917  48.5562222  64.4175008  63.2223149
  47.1043900  64.0976721  62.9379249  63.2422652  67.4737075  51.1680545
  62.3146380  67.5868828  50.9608565  63.2533383  66.8218500  51.8689047
  61.5138207  12.3592486   7.8249085  61.2995578  13.0501625   7.1980422
  61.8913633  11.6601641   7.2910788  26.3578899  24.1613867  16.1965415
  25.5055269  24.5700495  16.3472192  26.1498792  23.2997334  15.8352701
  70.9860577  43.1686786  17.8188209  70.6906945  43.6339602  18.6014481
  70.2032766  43.0980071  17.2724774  14.6768801  56.8491696  23.7588313
  13.9365464  56.2556986  23.8850451  15.3000580  56.3465129  23.2342196
  10.2114160  18.1925631  20.4611353   9.5512302  18.0614372  19.7805528
   9.7263437  18.1178132  21.2829315  24.8619654  11.2323536  34.7190127
  25.7514901  10.9303951  34.5351688  24.6873685  10.9338456  35.6115601
  58.0305249  20.0528741  21.8688614  58.1220532  19.1674316  22.2207791
  58.2448287  20.6263877  22.6046521  34.1862029  37.3336417  75.1436041
  33.2463448  37.5002655  75.2152631  34.2680781  36.3836167  75.2271546
  76.7623973  43.6158590  17.0645039  77.5487166  43.2350855  17.4555863
  77.0937534  44.2173661  16.3977025  56.1344608  65.9702393  43.9005218
  56.3338024  65.4278440  43.1374346  56.7695551  66.6851781  43.8586942
  78.7866208  56.3121340  18.8874846  79.5820481  56.7464554  18.5794387
  78.5297531  56.8066867  19.6657317  69.0379367  34.5737339  39.4185482
  69.6774768  34.4123702  40.1122212  68.1883964  34.4662265  39.8462810
   2.4924423  23.8607487  24.8825056   2.5326847  24.5667999  25.5275670
   3.4057233  23.7020300  24.6438465  48.2976364  15.3957329  43.4535221
  48.7908073  14.5794675  43.3715148  48.9370634  16.0304498  43.7767858
   8.7640936   8.2833023  13.9676228   9.7064972   8.1156626  13.9696748
   8.4088145   7.6460595  13.3480017  59.5122473  40.5008540  74.5390067
  59.2339484  40.1433739  75.3822087  60.4556374  40.6320256  74.6340906
  46.6448680  44.6229064  17.9962452  47.4232216  44.0882628  17.8395492
  45.9306785  44.1305869  17.5915395  82.5230734  39.8087513  35.5314051
  82.5450231  38.8555236  35.6157082  83.2718378  40.1119158  36.0448980
  43.5182499   7.7692429  86.2796202  43.9310260   8.4917902  85.8065736
  42.6014876   7.7963257  86.0056762  16.7241392   4.6459420  72.3453133
  17.1733046   4.2204906  71.6149207  15.8150515   4.7224324  72.0555881
  11.5019057  63.0459501  87.7781735  11.1473084  63.9344138  87.8117104
  12.2646767  63.0705313  88.3559348  62.3484101   2.8000693  45.3109610
  62.3282297   1.8684823  45.5299822  62.3898886   3.2443614  46.1577880
  47.6775269   3.2886797  71.4963131  47.2507961   2.5623618  71.9508404
  47.1302557   3.4441390  70.7265349  64.1814234  40.3552431  86.8564303
  64.5780611  40.5524320  86.0078863  64.8405549  39.8326826  87.3132762
   0.2779898  25.3016429  14.0122509   1.2248930  25.2318378  13.8908696
   0.1754516  25.6668553  14.8910784  25.3481494  67.3505781   6.0257170
  25.3114064  67.7073423   5.1382480  25.5733142  66.4282419   5.9039447
  56.6664442  53.0009123  68.1916699  56.2409870  53.5881586  68.8164578
  57.0081558  53.5815204  67.5117000  73.6070974  16.6489936  32.3396862
  73.6405887  16.0871255  33.1139048  74.2826987  16.2979228  31.7595621
  76.6138968   9.5546580  53.1976152  77.5423318   9.3519694  53.3123224
  76.4220370   9.2966855  52.2960211  75.6823692  38.1224825  29.5331193
  75.7201809  38.3148956  28.5962205  75.9941304  38.9232186  29.9548521
  57.3076940  60.7595706  40.5761947  57.7341878  60.3084655  41.3047817
  57.4245762  60.1722365  39.8294624  82.8589254  45.0497107  71.3546002
  82.1790923  45.0451318  70.6807770  82.6021911  45.7546376  71.9490727
   7.3574698   7.4196949   8.6870115   6.4461202   7.5740908   8.4383436
   7.3478571   7.4196418   9.6441632   9.7943483  37.3482486   2.4220444
   9.7744230  37.0375658   3.3272024   9.3595057  38.2004600   2.4516993
  24.5926253  28.9879317  78.5425292  23.9267219  29.4135604  79.0825706
  24.0938289  28.4601687  77.9189106   1.6475796  10.1763471   2.6388074
   1.9509118  10.3215085   1.7426213   1.3558094  11.0383664   2.9354972
  22.6439306   3.2646941  24.2032253  21.7159912   3.3067581  23.9721605
  22.9074474   4.1794079  24.3036716  70.8802779  21.0079450  34.6296226
  71.1780514  20.4086452  33.9452233  71.6433370  21.5541881  34.8182787
  55.5361010  62.3567919   5.4636571  54.9977972  63.0439680   5.8564035
  56.3489456  62.7994283   5.2195493  60.0794252  21.0068205  19.5017070
  60.6531649  21.1472254  20.2549275  59.6602615  21.8553543  19.3584448
  76.4185680  31.9889965  39.1992803  75.6302500  32.4325069  38.8860948
  76.6811254  31.4250370  38.4717880   5.3957178  15.7103511  31.8499261
   5.2720563  16.4731732  32.4147643   5.9730532  15.1332594  32.3498069
  10.4193795   9.3033694  10.9266188  10.1233265   9.1544243  10.0286212
  11.0921966   8.6378982  11.0704831  13.1070641  39.8711223  23.5758656
  13.9148706  40.1244304  23.1291940  12.4269563  40.4004510  23.1593367
  15.3077806  62.9309659  47.3932358  15.4600078  63.7630685  47.8411911
  15.6139861  63.0809296  46.4988193  80.1476001  39.4771523  29.1900757
  80.5630971  40.3056388  28.9509018  79.2165886  39.6175651  29.0176412
  53.4240224   3.1280758   4.8214304  54.1455432   3.3422706   4.2300252
  52.6758657   3.6118938   4.4715540  72.8405254  18.5548381  13.8855243
  72.7129803  19.5002677  13.9637990  72.4370052  18.3272557  13.0479030
  21.0463085  61.3562894   8.7250855  21.7705818  61.9814501   8.6962027
  20.9578337  61.1348976   9.6521182  37.0512917  22.3040080  83.8800613
  36.5596819  22.5558617  83.0983188  36.4910783  22.5668970  84.6103230
  59.0382053  43.1100160  45.2102400  58.8350759  43.7417747  45.9000596
  58.3302032  43.2136900  44.5744598  72.1558113   6.1233131  44.2957070
  72.4662753   5.8031547  43.4487462  71.6851494   6.9306831  44.0886736
  28.9573275  66.9286928  85.7734221  29.0060980  67.4192041  84.9529029
  28.1664212  66.3963999  85.6876132  20.9231930  47.6694859  80.5436856
  21.7423730  48.0160386  80.1900231  20.2472742  48.2518694  80.1969939
  77.8717992   6.9588945  43.3985810  78.3426303   6.6362312  42.6301812
  78.3339036   7.7606013  43.6434436  47.0779310   2.4897005  84.1016290
  46.7038610   3.0763655  83.4442648  46.7861092   1.6171098  83.8377023
  43.2215120  26.1514582  66.0488333  42.7823857  25.3734639  65.7051403
  43.9463017  25.8066406  66.5703816  25.4309331  54.4810773  63.2447299
  25.9315749  55.0235460  63.8540880  25.8085695  54.6739095  62.3865701
  79.8149156  44.1317255  45.5195536  79.0593686  43.8138306  45.0252629
  80.4160296  43.3871945  45.5433722  77.8161832   9.2234995  35.6376992
  77.4964797   9.6684167  36.4226007  78.7077154   8.9556693  35.8605649
  72.7085223  71.7069060  20.3904909  72.6731002  70.7533984  20.4666513
  72.1134587  72.0237278  21.0700165  43.5847873  11.7090408  87.8825969
  43.4131449  11.8134037  88.8184811  43.0546220  10.9550304  87.6244787
  19.0975844  30.4763768  72.2314803  19.9649627  30.8626573  72.3526167
  18.9268096  30.5605150  71.2934033  63.8427599  42.7967242  41.3151552
  64.1360156  43.2686888  42.0945667  62.8873676  42.8100072  41.3724349
  71.7674411  58.0284470  49.5502154  72.5907311  58.3113033  49.9482326
  72.0028979  57.7967642  48.6518196  46.1871455  13.6645955  80.3717868
  46.2898714  14.1290628  81.2024186  45.3702552  13.1754965  80.4702969
  62.5295002  15.1691052  76.2483270  62.8954971  14.3383503  75.9448069
  61.6085900  15.1338655  75.9896488  26.0544746  33.6950486  20.3248610
  26.6485301  33.0637843  19.9188619  25.5111125  33.1693354  20.9119002
  82.0701347   1.6035088  88.0137859  81.4020507   2.1517578  88.4252694
  82.8701185   1.7919102  88.5044615  53.2184433  33.5377946  71.5682991
  53.7156410  34.1948498  72.0554385  53.4152352  33.7210470  70.6496461
  15.1127472  38.1520350  40.7394207  15.7412247  37.4923783  40.4459912
  14.7279537  37.7799808  41.5329832  33.8235825  51.3329858  53.2544689
  34.4712214  50.6367981  53.3645525  32.9955989  50.8711840  53.1225065
  29.8581772  61.6837859  16.2308608  30.1099875  60.7933001  15.9862010
  29.6492311  62.1104652  15.3998866   2.6079936  43.4956355  66.8724551
   3.4251499  43.7907907  66.4707451   2.5930869  43.9246005  67.7280243
  72.8329104  12.3705079  39.1100381  72.0018845  12.5252661  39.5591235
  72.5845508  12.1809958  38.2052538  18.2217365  14.4155228  75.4461481
  19.1144575  14.1222573  75.2637298  18.2807197  14.8464328  76.2988318
   2.5948789  56.2262788  26.0346906   3.3269883  56.7140631  26.4119361
   2.3547480  55.5933250  26.7114022  84.6268006  68.5865745  13.4540250
  84.3695493  68.4398455  12.5437919  85.4509435  68.1092644  13.5499170
  26.1764574  45.1681598  51.6816604  26.4488210  44.4490457  52.2516822
  26.8342617  45.1850830  50.9865065  77.3912456   0.4564036   4.8300141
  77.1184638   0.5097426   5.7459710  76.8848546   1.1386535   4.3891796
  21.9822653   7.7482291  11.9304647  21.2844460   7.5298195  11.3127453
  22.0609782   8.7006278  11.8759420  84.9855496  60.5581674  87.6548789
  84.6464700  61.4506291  87.5858213  84.9427494  60.3573633  88.5898001
  46.3483408  52.6236539  13.1308351  46.9828810  51.9737183  13.4327857
  46.4866674  52.6719877  12.1849168  37.4775951  51.3806364  64.5204087
  38.2162000  51.5936551  63.9500424  37.5385002  52.0121968  65.2371052
   3.1942184  54.5147152   1.5765807   3.0460049  54.8176174   0.6807487
   2.3360450  54.2100732   1.8714762  17.0518936  68.0674121  58.7699343
  17.0323527  68.9501252  58.4002486  16.9986686  67.4881487  58.0097679
  69.3006022   6.2320956  13.7433457  69.4168107   6.0726263  14.6799870
  70.1717376   6.1025025  13.3684316  47.1804289  31.2347285  82.0767242
  46.2804886  31.0691506  82.3576570  47.3693174  30.5339172  81.4526917
  18.0192091  20.8560864  11.8917465  17.7771742  20.1868144  12.5318448
  17.5938431  21.6536589  12.2066652  32.1922821  17.3445895  83.8821511
  31.8355073  18.1943438  83.6235754  32.4848110  17.4722163  84.7845756
  70.5771933  35.4892425  82.5585623  70.5647265  36.3682997  82.9371583
  71.4488263  35.1518515  82.7650931  11.3973661  41.3810459   0.9137147
  11.8541901  42.1611368   0.5990691  10.9402373  41.0440652   0.1431895
  71.4287506  66.6627687  86.4378168  71.5501832  66.8793745  85.5133884
  71.4335858  67.5091908  86.8847823  37.5108309  70.0846546  20.0540440
  37.8642212  69.8790055  19.1885640  38.2500865  69.9627489  20.6497553
  38.0135661  43.3248991  60.2002903  38.4685080  43.9024081  59.5873114
  38.5493769  43.3473844  60.9931542  35.4823662  18.7217492  12.8851410
  34.8120855  19.3028977  12.5256663  36.1051163  18.6020142  12.1681490
  21.5593941  42.5248367  11.8280609  21.0012919  42.0205402  11.2360822
  22.3991164  42.0655707  11.8149118   3.9077165  12.3735619  32.7288238
   4.7663271  12.1612219  32.3628572   3.2843184  12.0691080  32.0693433
  46.5272193  25.1974160  79.2590904  46.6295724  25.6862051  80.0756937
  45.6482276  25.4221719  78.9539835  21.4736840  57.1265309  53.0040449
  21.3089749  57.4229213  52.1089162  21.0609323  56.2641484  53.0505664
  71.2662171   5.3477593  82.3314432  71.3184192   5.8371451  83.1524232
  71.6634706   5.9273442  81.6814410  38.2698067  46.7258744  59.8283389
  38.9363711  46.5882047  60.5013699  37.4682539  46.3657526  60.2078877
  75.3340942  66.8401588  49.1189748  75.6269361  67.4174983  49.8240667
  74.6408383  66.3117291  49.5144369   0.3455902  52.8381615  67.9782831
   0.1534681  53.2251279  67.1241297  -0.2406987  52.0837925  68.0368021
  22.0072531  42.6761701  82.1078807  21.1484306  42.8644714  81.7294652
  22.6076842  42.6998041  81.3627929  64.1971000  28.7421881  42.2035729
  65.0298635  28.3078229  42.0190098  63.7996367  28.2138646  42.8957644
  84.2866762  67.8732674  42.9632087  83.7567838  67.8167218  42.1680681
  83.6484256  67.9696030  43.6700238  63.0796625   4.7165813   7.2474597
  62.9593918   5.4706006   6.6702060  64.0017426   4.7541694   7.5016001
  73.1167380  65.5868255  53.2822242  73.5016994  66.2721838  53.8284115
  73.1974910  64.7896407  53.8058720  33.0828161  52.0056653  17.6766865
  34.0305873  52.0775564  17.7897931  32.7747970  52.9116904  17.6549006
  35.2811352  71.6227248  85.2033069  35.1265583  70.6915771  85.0442416
  35.1209254  71.7354794  86.1402440  42.9015513  28.5153653  12.3115152
  42.9932176  29.0483758  13.1012803  43.7769786  28.5081806  11.9244656
   8.7872351  39.4719035  78.9423413   8.5485766  38.8371228  78.2668211
   8.7742855  38.9704085  79.7575510  14.3978804   1.0879175  31.7348817
  14.8834337   1.7616582  32.2108474  15.0636621   0.6308234  31.2210417
  24.2678821  53.4727851  85.1457545  24.5932569  52.8623558  84.4841359
  23.6166816  54.0012939  84.6843998  83.9406465  36.4208887   7.2050681
  83.1208591  36.0259394   7.5020454  84.3946665  36.6653576   8.0115002
  50.6924117  54.7606483   3.9383736  51.4016956  55.3205745   3.6227301
  51.1199779  54.1454167   4.5341161  35.9516747   7.8077155  20.9991105
  36.7061600   8.3824560  20.8700483  35.7831934   7.8414485  21.9407623
  51.7811234  42.1877748  61.6518041  51.1308235  42.6456952  62.1843929
  51.2685613  41.5826029  61.1158200  25.0490589  22.2549704  73.6799669
  25.7538698  22.3451429  74.3213267  25.4982770  22.0744413  72.8542283
  32.3869249  11.9591656  74.9601311  33.2531656  12.2955976  75.1896357
  32.4711092  11.6836634  74.0473094   4.8346401  37.4472390  32.3293700
   4.2690117  36.7948867  31.9161717   4.2781623  38.2200617  32.4258554
  11.4794879  68.9778322  64.9135346  11.5734568  68.2656472  64.2809256
  10.5432404  69.1770095  64.9126359  68.2173326  13.3754032  36.9578116
  67.2976316  13.1744741  37.1310436  68.3858364  13.0000106  36.0935670
  72.2796117  41.9920463  75.5435719  72.0792499  42.1729412  74.6252233
  71.5801937  41.4047359  75.8301252  78.2504105  16.3237100   5.0491278
  77.3560745  15.9825454   5.0504259  78.2901703  16.8885407   4.2773653
  36.0919454  51.2179178  68.2368979  35.3439605  51.7466826  68.5146716
  36.5118367  51.7381740  67.5518748  24.8653058  50.2996907  22.5196456
  24.8575851  50.7063245  23.3861450  23.9954506  50.4795103  22.1629262
  85.5275815  53.5689937  62.9313285  85.5242538  53.6213649  63.8870890
  86.3743390  53.1781089  62.7158229  79.9979857  19.8816059  54.0666708
  79.8522931  20.0051048  53.1287191  79.7730799  20.7260696  54.4572220
  48.4024942  65.2506926  47.6839262  47.5629528  65.5304581  48.0488005
  48.3022589  65.3632465  46.7386663  35.5334410   4.1619371  88.9285634
  35.0083351   3.9128147  88.1680152  34.9283173   4.1011142  89.6677236
  65.4213778   1.2623799  21.3488847  65.0544135   1.3370484  22.2297897
  65.2934132   0.3435146  21.1132080  78.6617611  68.3766401  48.5352349
  78.4609294  68.3393682  49.4703869  78.7997370  67.4635514  48.2833151
  67.1836199  10.1134052  62.8774150  66.7423991   9.5428941  62.2480716
  67.6280766   9.5121952  63.4751078  83.9331326  46.9586410   9.1840310
  83.9740491  47.8495148   8.8363221  83.8693692  47.0742511  10.1320818
   1.1045183  52.9777936  85.5626913   0.6224686  52.3107330  85.0739274
   0.4610143  53.3404433  86.1714767  60.3125775  48.9349175  55.4879639
  59.5915919  49.3994762  55.9129308  61.0158007  49.5820715  55.4341059
  25.0145771  67.2714062  63.1599494  25.8108821  67.4811951  62.6719752
  24.7756928  68.0912497  63.5924107  69.0400831  10.9280025  40.9946535
  69.6540622  10.9708825  41.7277447  69.2442125  11.6993152  40.4658438
  27.8497634  39.0581022  40.8688745  27.6874324  38.8525101  39.9482158
  26.9783176  39.1912753  41.2418075  63.7277066  71.0839672  43.8374205
  64.2082158  70.3765880  43.4073537  63.8579024  71.8425113  43.2683056
  67.6000315  69.0194072   1.2488486  67.9783733  68.4458353   1.9152603
  67.5254435  68.4663496   0.4711625  81.4535895  33.8408921  77.8841558
  82.0170992  33.9057642  77.1131303  81.3452385  34.7452757  78.1784042
  61.8120898  69.3908621  83.9031673  61.7451234  69.8883882  83.0881733
  61.6293673  70.0314536  84.5905440  35.3007256  60.2014648   5.0300530
  35.5836158  59.3246276   4.7705119  34.7387589  60.0563231   5.7912094
   8.3318649  26.8256537   1.7119210   8.6445717  27.2965904   0.9394802
   8.8767349  27.1518017   2.4281445  65.2053922  38.3221833  84.5754368
  65.2394497  37.8138061  83.7651131  64.8499467  39.1707135  84.3110755
  13.1819066  48.1826199   5.2479825  14.0966447  48.4320501   5.3794003
  12.8277952  48.8635093   4.6759454  33.8117948  65.2249882  28.0967177
  33.6208302  64.2960816  28.2267055  34.5262771  65.2357877  27.4598266
  67.4448502  19.2404434  28.1398817  67.4351355  19.3270374  27.1866562
  67.9013433  20.0237610  28.4468988  33.2640492  41.5437153  44.8304786
  33.5682536  42.4313401  45.0197236  33.2690881  41.4874256  43.8749484
  36.1374089  47.2437682  86.2339459  36.0559516  47.4212035  87.1710229
  35.7307523  46.3852407  86.1165034   0.3637129  70.4980380  60.7916072
   1.2261648  70.0905949  60.7116159   0.4613467  71.3506295  60.3675938
  69.8066443  65.3515365  83.9525145  69.5983198  66.1706992  83.5032871
  70.0940222  65.6228434  84.8243162  15.7822501  56.5979359  30.6972316
  16.5704385  56.3023073  30.2416061  15.7149442  57.5278671  30.4805991
  42.2258469  23.5804821  40.7189688  41.6373223  24.0664223  41.2966650
  42.4081092  24.1848496  39.9994188   1.4488433  49.4702060  55.5008064
   1.9272827  50.2198734  55.1467919   1.9050691  48.7064367  55.1476121
  19.8065684   0.9271878  67.9104768  20.5873481   1.1952876  68.3949738
  19.9790810   0.0191041  67.6617697  75.0473673  33.5703356  37.2953366
  75.0213447  34.4582931  37.6518279  75.4582311  33.6690079  36.4364497
  23.6119799  16.1695466  34.9815131  23.5796208  17.0943766  35.2262052
  22.7952460  16.0189974  34.5055799  47.9853506  47.5871685  25.7657732
  47.1088757  47.3397739  26.0604246  47.8917707  48.4925398  25.4695007
  11.5268804  31.6468904  78.6690102  10.7884166  31.2143509  79.0977440
  11.8478608  31.0030613  78.0375932  62.5101246  35.5942799  55.5888202
  62.7995221  34.7755554  55.1861153  63.1854644  35.7941773  56.2370401
  61.0937435  25.8005685  24.1444567  61.8508239  25.6370413  23.5820333
  60.5326319  25.0352452  24.0192933  21.6690807  37.5892255   7.5029503
  20.9649091  37.3905826   8.1201336  22.4104242  37.0668706   7.8091969
  29.0006425   2.3980703  16.9390251  28.3148802   3.0647907  16.9770493
  28.5500683   1.5790238  17.1448833  27.5707341  33.2178597   5.3677298
  27.8059335  32.7949277   4.5418717  26.6923170  32.8912090   5.5624466
  79.8083237  66.4086953  71.4709929  79.1708805  67.1139381  71.5829327
  79.5890404  66.0198063  70.6242864  76.8085702  36.2342331  22.8642713
  77.2423887  36.9094910  22.3426774  76.9779275  35.4199407  22.3904805
  58.4406393  52.0498435  60.2047716  59.3295392  51.8351468  60.4876039
  58.1985686  51.3368666  59.6137576  37.1828303  43.6912067  27.1420845
  37.3771493  43.4246552  28.0406513  36.3064720  43.3449543  26.9737479
  23.6839093  38.9436274  12.8097873  23.2917778  39.2796615  12.0038433
  23.4685212  38.0109754  12.8101821  66.6006609  59.7637999  78.7759082
  65.8183628  60.2215176  79.0837005  67.3281396  60.3230602  79.0483684
  83.7647043  29.1995473  83.0362967  83.8978564  28.3578661  83.4722727
  82.8773104  29.4596149  83.2835389  14.9171186  53.1791499  64.8805447
  14.8790255  52.2378425  65.0500177  15.6012280  53.5007405  65.4677463
  79.9967904  30.0508763  71.4112525  80.5885427  30.4159905  72.0690920
  79.8760749  30.7588145  70.7784152  84.0058478  15.2998369  84.0708720
  84.9622299  15.2776390  84.0381272  83.7993408  16.1464392  84.4669164
  51.9901952  31.5822379  54.7312403  52.4863374  31.2195463  53.9973946
  51.5961908  32.3816935  54.3821514  56.5150708  35.7317118  61.8705967
  55.7448508  35.1650535  61.9140866  56.5892216  35.9644769  60.9450948
  71.0127229  28.6064433  28.4288776  71.0527799  28.1321112  29.2593211
  71.7334951  29.2344770  28.4767603  86.8148303  45.7781288  58.3646425
  87.4310755  45.3155119  57.7967874  85.9983300  45.2851343  58.2839245
  19.0319517  70.8008988  41.7693976  18.3798874  71.1217357  41.1464148
  19.1032775  71.4978181  42.4216613  61.9961823  61.1038468  19.6248767
  62.1741283  61.5071905  18.7752409  62.7991687  60.6279700  19.8369758
  13.9084235  42.1115985  34.1646662  13.2869567  41.8802790  34.8549576
  13.6550450  42.9961491  33.9008456  30.3038508  57.2701579   9.7013336
  29.6831593  57.5179864   9.0160928  29.8829716  56.5383237  10.1524559
  41.5919491  41.2955177  81.8080534  41.9540110  42.1674526  81.9657636
  42.3536053  40.7157740  81.8110423  34.3605651  64.1441274  35.7627215
  34.0412776  65.0417740  35.8550144  35.3138965  64.2247510  35.7925694
   5.0041563  42.2042150  62.2505467   4.2900825  42.7653758  62.5529191
   5.7575673  42.4704044  62.7775636  47.2363415  13.1303145  62.2505629
  46.3749372  12.8486793  62.5586150  47.8084724  13.0260305  63.0108411
  50.3008750  57.4064954  17.5345157  49.7066411  57.7058339  18.2226395
  49.7238361  57.0621982  16.8528139  22.5214183   1.8289322  17.2716174
  22.0617842   1.4858406  18.0379440  22.0227919   2.6068265  17.0216492
   0.6274490  27.6556917  35.6511955   1.4166165  27.3229951  35.2236918
   0.3754558  26.9627447  36.2615690  48.8116562  21.3754983  58.4106584
  48.7237227  20.9408744  59.2589517  48.1128637  20.9995332  57.8753349
   4.7678181  26.5200536  25.7399757   5.1219024  25.6637437  25.4999974
   3.8560299  26.3454113  25.9731581  18.4205934  67.1344430  29.6423552
  19.1552373  66.6569533  29.2569544  18.5523294  68.0410775  29.3650622
  12.8612960  30.3874810  32.4191514  13.6999498  29.9867619  32.6478776
  12.9113951  31.2717159  32.7822638   8.2010953  60.2470038  49.6130568
   7.6740008  59.8989936  48.8938265   7.8174981  59.8601784  50.4001090
  50.5737459  40.0024133  81.5623616  50.5576069  39.3458335  80.8660324
  49.8324709  40.5759615  81.3679764   1.5013306  64.7172246  54.9355208
   0.9289310  64.8324570  55.6940141   2.2336005  64.1962256  55.2650244
  24.7573486  43.2248119  76.9816289  25.2393360  43.2271083  77.8086202
  25.0432314  42.4251405  76.5400085  47.3866780  54.3801551  38.9013635
  47.4674701  53.7081855  39.5782396  47.8201379  55.1482180  39.2734171
  42.9480905  40.9353406  16.3981309  43.5004095  40.2660399  15.9941357
  42.2391398  41.0721542  15.7697180  17.2287558  31.8052495   4.3128061
  17.0914741  31.2278662   5.0638149  17.1341150  32.6885277   4.6693093
  57.9407614  26.1846404  34.5925675  58.2395810  26.6147328  35.3937911
  57.3146214  26.7993122  34.2099984  74.7644287  43.7801720  55.2607782
  74.1372606  43.0603646  55.3298388  74.8173449  43.9625576  54.3226059
  32.0720022  41.4831477  38.1432261  32.9052249  41.1856413  38.5085501
  31.4372260  40.8257861  38.4281239  73.7720360  28.7109400   8.3388570
  74.1294772  27.9384011   7.9010770  74.4968234  29.3360500   8.3512095
  22.9288996  70.4973021  56.3678286  22.6113867  69.6747877  56.7405047
  23.6962626  70.2467403  55.8534311  18.7273913  34.1177625  65.4602777
  18.0964916  34.1353306  64.7406327  19.5634390  34.3414746  65.0513658
  66.9270465  16.7022111  48.3747761  66.5434078  15.8275979  48.4388448
  67.0935536  16.8228209  47.4399175  38.2683611  30.3446697   7.1278959
  37.8859476  30.1183236   6.2800992  37.9966610  29.6352660   7.7102681
  66.7029670  20.2984641  69.0673678  66.2019787  20.1492090  68.2655165
  67.4701425  20.7944767  68.7816319  41.3054156  59.2811647  24.8695836
  40.6938548  58.7977921  25.4250800  41.8439965  58.6038481  24.4604326
  59.6263284  47.8460079  23.0604664  59.7527036  47.6259645  22.1375135
  60.1771793  47.2219573  23.5330720  57.7207601  70.2559621  76.6751138
  57.2884299  69.5782813  77.1947975  57.6538492  71.0470313  77.2098702
  34.0278805  29.0401447  80.6410114  33.1590433  29.2282799  80.2861045
  34.6199643  29.5920927  80.1301083  78.5550999  28.4787697  35.4242619
  78.2307953  28.0796587  34.6169399  79.3588054  27.9983211  35.6229033
  36.0323121  65.7035816  26.7205713  36.9033523  66.0254040  26.9528454
  35.8862200  66.0279737  25.8319438  17.8863428  15.9468708  20.9654545
  18.6021559  15.6942898  21.5485893  18.1461539  15.6106348  20.1077393
  27.2691600   0.7747848  13.1162745  26.6527770   1.2665414  12.5736151
  27.8556068   1.4404013  13.4758114  12.5171729  55.8738013  15.0450586
  12.3303483  55.4982297  14.1846666  13.1969953  56.5268307  14.8788481
  73.9063278  69.0359932  69.8586128  74.5174168  69.3488541  70.5256361
  74.3398319  68.2734541  69.4754156  69.8421840  32.7284299  66.3427350
  69.1092526  32.2208538  65.9942959  70.2932654  33.0613472  65.5668977
  85.4773696   5.0253592  64.7149739  85.3801547   5.2667397  63.7938243
  86.3923606   5.2195911  64.9181914  29.6159286   6.5315211  66.6940427
  28.7264495   6.4580893  66.3481140  29.5072414   6.4936055  67.6442960
  42.8712278  23.7928645  76.1143742  42.0111320  23.4875871  76.4029445
  43.4866816  23.1605667  76.4853836  39.2131561  68.7002575  35.1755540
  39.6099342  68.2068192  34.4576977  38.3433484  68.9354291  34.8525050
  72.6384009  71.0957583  13.0467484  72.3070167  70.7010673  12.2401287
  73.0746784  71.8977935  12.7592884  81.2982238  31.1715915  81.0097137
  80.4026224  31.4516712  80.8208078  81.6903160  31.0260940  80.1487108
  64.2249506  51.3913968  88.0843787  64.9762028  51.6609571  87.5559952
  63.9172314  52.2002490  88.4934005  72.0123795  13.0930719   8.5198570
  72.0345440  12.5369602   9.2986255  71.1075463  13.0386652   8.2123693
  63.8521976  47.4084090  10.8568214  64.5207730  47.9554127  11.2691632
  64.3480283  46.7451946  10.3766855  34.6698796  69.9477667  43.1757193
  34.1745647  70.2487951  43.9374784  34.1309809  70.1982953  42.4253490
  50.3737742   5.4310861  51.2906660  49.6249346   6.0119036  51.1560472
  50.5792718   5.0987794  50.4168383  63.2326619  25.0694559  14.8923655
  62.6582219  25.3974914  15.5842060  62.9565220  24.1622951  14.7618361
  33.2632697   4.6997640  81.4549872  33.0546322   4.0770920  82.1513936
  33.4309469   4.1531699  80.6872951  17.9210029  57.3297211  45.6144512
  18.3142314  57.8325615  46.3277216  18.5460849  57.4073376  44.8937015
  72.2334561  15.1130650  24.0193219  72.0884618  16.0401099  23.8301227
  71.5552414  14.6578407  23.5202953  40.0618617  29.5925870  66.6418553
  39.7407927  29.7245210  65.7498127  40.2770356  28.6608205  66.6836059
  33.8591562  61.3946888  86.9864944  33.1827241  62.0108749  86.7054496
  34.2670399  61.0991425  86.1725441  81.3381998  29.8266198  67.6632232
  81.4336326  29.0208020  68.1709455  80.3940852  29.9185630  67.5350593
  25.7107661  29.5360561  21.0114504  25.6362655  30.0724148  20.2221463
  24.8305205  29.1851214  21.1465221  33.8818300  60.0479746  50.4243552
  34.4254253  59.4377065  50.9226613  34.2326202  60.9121055  50.6398914
  22.5321168  44.7930039  83.5767870  21.6828626  45.2117272  83.4365371
  22.4601716  43.9497667  83.1295658  16.3220590  25.1718816  71.7228170
  15.6897046  25.2028763  71.0049039  15.8551669  25.5468011  72.4695960
  79.0030084  58.0716575  22.8956867  78.3153739  58.0317973  23.5603685
  78.5500135  57.8936832  22.0714582  13.3747536  35.1630692  29.3705825
  13.2100099  34.2202170  29.3815846  14.0362928  35.2826844  28.6891942
  63.8653514  70.3516896  73.7258223  64.2179097  71.2319897  73.8562303
  63.3871259  70.1631659  74.5332819  78.8287242   8.7370836  77.0066412
  79.7784399   8.6849906  77.1141511  78.6897869   8.6574486  76.0629323
  20.2138067  68.3844202   0.3419178  19.7711019  68.7367685  -0.4301541
  20.8107373  69.0812398   0.6145865  81.0112045  33.5955604   4.3603091
  81.4018466  33.8589443   3.5270867  81.1473889  32.6489325   4.4000745
  60.0341000  19.5180815  15.2240189  59.3827878  19.5435485  14.5230370
  60.3454138  18.6129344  15.2289360  45.2222635  11.3853348  71.3564394
  44.8036062  11.2559143  72.2074436  45.3396035  12.3329095  71.2888724
  34.6129929  69.1800984  64.0250098  35.1880906  68.4317446  64.1845750
  33.9724008  68.8588628  63.3904382  69.0042886  23.0703359  15.6014539
  68.8916523  23.8502658  15.0580808  68.6682415  23.3262807  16.4604047
  54.1085835  39.7915375  44.9132305  53.6928577  38.9499020  44.7260044
  53.5485420  40.1927368  45.5777788  21.7979683  21.1714991  58.7279756
  22.6394958  21.2095588  59.1825246  21.1553092  21.0375906  59.4246029
  79.0525193  24.0326377  54.0981175  79.3310795  24.7623942  54.6513729
  78.8146760  23.3410652  54.7156851  16.1324056  60.2058544  66.6738342
  16.9178564  60.3060286  66.1360015  15.7958585  61.0962721  66.7744533
  67.7634663  26.7512839  83.0343379  66.8565688  26.4943704  83.2009638
  67.6952936  27.5002568  82.4422028   8.6177611  50.4563881  35.3532484
   7.8450636  50.9890135  35.5416111   9.2640134  51.0803743  35.0227473
  68.4487713  32.0005328  70.9640058  68.8681523  31.5395484  70.2374766
  69.1351434  32.5671488  71.3162435  48.2839443  36.7717414  81.7267262
  48.0602260  37.4590194  81.0991667  48.6806935  36.0817666  81.1949776
  80.8239387  50.2857187  29.3197191  80.1269783  50.5942622  28.7406864
  81.3519987  51.0645857  29.4950772  13.1746492   5.1723656  52.2826913
  14.1241682   5.1514891  52.1634872  13.0199828   4.6449046  53.0663335
  58.3158324  31.7141938  23.8928696  58.7899562  31.0784889  23.3568492
  58.8708534  32.4940302  23.8866449  83.7520330  53.5446958  31.4564549
  83.2463361  54.1334150  32.0167336  83.7682766  52.7150850  31.9336487
  51.0189241   3.8799097  64.7141980  51.7638821   3.4018817  65.0785586
  50.7587329   4.4840506  65.4095728  48.9734546  56.1605609  40.1323812
  49.3416789  55.5073557  40.7273314  49.6982836  56.7607555  39.9573918
  55.3533657   1.2711177   1.5366842  54.9278195   0.5643875   2.0221476
  56.2579580   0.9771244   1.4293874  37.6521847  66.2093860  84.3174896
  37.4610622  67.1472824  84.3101048  38.3903479  66.1106313  83.7161623
  32.8479121  40.3385894   3.2092830  32.5545711  39.4289089   3.2608993
  33.0440531  40.5787478   4.1148681  71.7433208  69.4850975  44.6943668
  71.3909819  69.6402395  43.8179993  70.9958153  69.1660704  45.2000239
  82.1476186   3.8215997  25.3700533  81.5626920   3.8263576  24.6123792
  82.6978624   4.5959990  25.2527112  64.7362350  54.2402950  87.0009637
  65.4460330  54.8244105  86.7340786  64.6691815  54.3620005  87.9480241
  14.3438399  65.1239073  49.1657673  14.5623302  65.5370001  48.3303942
  13.3869812  65.1021488  49.1791840  22.2657794  23.8614384  88.8005201
  22.2382439  23.0272436  88.3319130  21.4958332  24.3369288  88.4885527
  81.9016825  19.5370517  35.8348666  81.6058964  20.3979967  36.1306977
  82.7833567  19.4492233  36.1970388  81.6998242  58.0176370  23.8650156
  82.0884821  58.4702555  23.1164748  80.9280463  57.5798990  23.5058832
  84.1550133  37.6746622  41.9017642  84.5346956  38.2844731  42.5343809
  83.2558761  37.9810056  41.7837058   0.5550260  19.4403467  41.4558997
  -0.0013787  20.1833967  41.2223999   1.3897157  19.8357971  41.7071841
  69.1579847  63.0383652  62.5916314  68.2472073  62.9508516  62.3104593
  69.5574706  63.6092255  61.9353073  -0.0546374  20.7267939  20.3923480
   0.8248376  20.4675605  20.6672179  -0.5100672  20.9318849  21.2088977
  32.4297722  64.4478490  47.0333698  32.5952835  65.3775355  46.8767790
  31.5006906  64.3330269  46.8337322  86.0397737  29.6091192  37.0194707
  85.1504479  29.5665854  36.6680132  86.5423828  29.0048775  36.4731120
  54.5941596  54.5655456  66.1418462  53.8221174  54.6177764  66.7052773
  54.3002667  54.9135609  65.2999768  63.7918552  68.9362225  62.2906296
  64.7275506  69.1121240  62.3894461  63.6102162  69.1171705  61.3684057
  68.6878364  31.6408575  30.5775250  68.5313165  30.7693370  30.2139519
  68.3332076  32.2411863  29.9217236  54.1221206  53.1778511   4.8870522
  53.9271355  53.7145017   4.1187952  53.2654092  52.8876102   5.2001618
  87.1118361  42.5015218   4.5623413  86.4899219  41.9668047   5.0558312
  86.7215364  43.3754831   4.5528751  66.6594880  31.9470484  42.1925458
  66.9686421  31.1121695  41.8409311  65.7853680  31.7549856  42.5320425
  12.9147311  34.7280339  62.7629795  13.6717043  34.5938454  62.1927015
  13.2869636  34.8016839  63.6417573   4.2486905  10.1663498  74.5490073
   4.8342429  10.9134463  74.4256907   3.6848650  10.1737186  73.7755227
  78.1423326  17.5987657  76.0611229  79.0524960  17.3155692  75.9737491
  78.1048809  18.0235490  76.9180876  50.9681565  46.0384686  85.4340145
  50.8793879  46.1652952  84.4894157  50.7992978  45.1057642  85.5673603
  31.3179289  64.1892763  25.1051056  31.0240711  63.7428902  24.3109905
  32.0918587  64.6812662  24.8308605  60.9289678  65.6586750  57.6893155
  60.5308645  66.1011053  56.9396482  60.9379978  66.3204130  58.3808739
   4.2591181  25.2082383  40.4987654   3.7811658  26.0375703  40.4973509
   4.2956657  24.9544338  41.4209798  50.5713738  42.7004037  55.8316341
  50.3502486  41.7716916  55.9011279  51.1257435  42.7570314  55.0533673
  68.4089188  59.1932060  25.9535916  68.4522327  58.8512048  25.0606242
  67.5591457  58.8991848  26.2817214   5.2918905  17.2183423  25.9516110
   6.1976591  17.4887786  26.1022078   4.8093949  17.5699746  26.6997985
  17.4276928   3.9953995  23.1484680  17.1236178   3.3363257  23.7724808
  16.7631087   3.9976368  22.4595886  20.2670769  10.1397028  80.9522516
  20.6424812  11.0201938  80.9460116  19.6039067  10.1669604  81.6419575
  39.2204131  44.2034212  40.6577054  39.0562831  45.1077947  40.3904946
  39.8025878  44.2789587  41.4137468  82.0230469   8.8042059  74.1489909
  81.1680645   8.4288717  74.3596118  82.6288760   8.0650638  74.2025813
  18.6219293  49.9633958  16.1500277  18.4397655  50.3527757  15.2947900
  17.8926777  50.2457996  16.7019986  15.0034993  58.0820124  84.1662374
  15.6234636  57.3532192  84.1933767  14.3104322  57.8297351  84.7763571
  18.4432672  63.0650789  57.1115500  18.4400207  62.2751006  56.5710357
  18.6727947  63.7692434  56.5051661  41.0536460  20.6879563  83.7481789
  40.1280754  20.5197339  83.5713962  41.4998078  20.4501248  82.9354012
  48.9621027  62.1883821  22.2828684  49.3804111  62.6479552  21.5548282
  49.3667802  62.5616429  23.0659037  25.0016310  70.1330300  27.4852079
  24.5626144  69.3100669  27.2702010  24.3910751  70.8122073  27.1985520
  69.2316943  46.0892343  38.1144267  69.3969402  46.9060787  38.5852674
  68.7426517  46.3561509  37.3360793  49.1244139  17.9887364  42.4263696
  49.4796034  17.6245341  41.6155497  49.8885042  18.1072912  42.9905881
  12.6037311  49.3746649  72.9681611  13.0104658  50.2402986  72.9297281
  13.3224896  48.7818403  73.1876536  18.9036375  67.1138706  51.9747096
  19.2694871  66.2641537  52.2204067  19.1166373  67.2068945  51.0461573
  60.1881058  59.5656469  11.5777039  59.9015107  60.2558481  10.9796091
  59.3894865  59.0793390  11.7825054   9.0422854  63.2400970  56.6727568
   8.4814825  62.5316935  56.3566927   9.9296438  62.8852112  56.6190645
  51.8135360  70.6232664  46.0930968  51.6917322  69.7636985  46.4962577
  52.4504977  70.4721803  45.3947526  73.7553816  22.0994081  33.9358084
  74.0837205  21.3144962  34.3743728  73.6413177  22.7373737  34.6402380
  20.7681529  12.5544872  36.5390648  21.2540099  12.4129130  35.7265800
  21.0003351  11.8071808  37.0902964  51.8268972  51.3640400  88.6213464
  52.7102344  51.6394228  88.3761701  51.7986268  50.4315342  88.4071837
  40.7131740  15.3436214   0.3881992  41.6397019  15.1205423   0.4777190
  40.4206961  15.5157307   1.2832226  46.3850324  53.9854970  81.1756289
  45.7177966  54.6445190  80.9840087  45.8881304  53.1896482  81.3652204
   2.5403034  34.9923721  54.1550112   3.4699727  34.8587946  54.3396838
   2.2765588  34.2079973  53.6739428  75.8633796  42.8773824  79.1235811
  75.1444654  43.1411732  78.5492915  75.4340462  42.6004164  79.9330220
  33.7877894  57.3894751  48.6638310  33.9140275  58.2899617  48.9628622
  33.0958565  57.4505793  48.0052515  62.5522332  10.0430991   6.2685501
  62.3596413   9.5499217   5.4711066  63.1065276   9.4574860   6.7843474
  17.5445376  11.9893319  20.7109849  18.2316353  11.6710784  20.1254566
  17.8417841  11.7409966  21.5863167  72.2804915   5.8189738  65.0428623
  72.4595360   6.6556856  64.6138073  72.5241206   5.1596551  64.3931120
  61.4026645   8.7996970  72.3857652  60.4843213   8.9409695  72.1557223
  61.8822344   9.4415653  71.8620767  54.1789659   9.7140640  73.4741628
  54.0627498   9.5994192  72.5309862  53.4215842  10.2315642  73.7476555
  12.9663945  12.4716923  87.8329801  13.3560369  12.2537540  88.6796876
  13.6455379  12.2554932  87.1940325  48.8855835  10.0861039  45.6506413
  48.4197328   9.2511502  45.6051749  49.7884727   9.8456121  45.8584553
   3.5795506  67.9449032  43.7574156   3.0112847  68.7121744  43.8252436
   3.2358597  67.3339357  44.4092032   8.8474465  16.3412812  84.2032490
   8.6830658  15.9524464  83.3441691   8.0538599  16.8405920  84.3959685
  49.3383017  52.2420925  51.9099098  48.5348526  52.6932162  51.6507019
  49.9978524  52.5519248  51.2892418  20.2319220  71.1827419  62.4226479
  19.9616396  70.5473767  61.7597072  19.4105155  71.5222403  62.7779842
  28.4273101  47.2345509  21.7781582  28.9925629  46.9783330  21.0494103
  28.8500121  46.8615816  22.5517529  17.7374214  49.6975554  69.4448657
  17.1708435  49.0419168  69.8515096  18.5705245  49.2451807  69.3124716
  79.5578996  19.6495611  68.8874028  79.8302112  19.1442924  68.1213860
  80.3458801  19.7090560  69.4275685  61.9123434   0.8046821  11.5360938
  61.7746321   1.4909510  10.8831754  61.2137812   0.1718612  11.3694196
  24.5293257  52.1923523   5.6207271  24.9243390  51.5932500   4.9872661
  25.2569671  52.7366085   5.9216509  53.2753508   4.4146340  34.5149315
  53.1536938   5.3521806  34.6647239  52.3974964   4.0426227  34.5998499
  20.9860351  55.4046950   7.6383685  20.1273249  55.8267362   7.6113524
  21.3610684  55.5691590   6.7731902  73.9140208  65.3227449  66.1603777
  73.7138231  64.4104557  65.9508992  74.7700507  65.2881700  66.5872843
  27.5791685  35.2883632  21.6930657  26.9822449  34.7715607  21.1519287
  27.8305020  34.6979608  22.4033391  19.2466484  34.9695248   2.0334743
  19.4069555  35.7051357   1.4423651  18.3707109  35.1305967   2.3842180
  80.8380402  63.4831364  49.1865037  81.0516287  64.4079529  49.0627040
  81.6711956  63.0741624  49.4206493  52.9294697  41.2140028  81.9647812
  52.5937223  42.0721796  82.2236983  52.1487788  40.7120431  81.7307085
  54.7025939  22.3377208  33.2084454  54.1885294  21.8095069  33.8191496
  55.2728576  21.7075815  32.7680413  86.8047459  62.8995136  41.4396069
  86.0755962  62.6985131  40.8529456  86.3972554  63.3376652  42.1867391
  63.0151727  30.3911776  72.3046472  63.5858089  30.4905605  71.5425913
  63.3778204  30.9921811  72.9554262  71.2495819  48.2758191  34.0243274
  72.1080345  48.5826454  33.7325250  71.0310908  48.8431008  34.7637089
  71.1298518  15.3232121  42.1985705  70.3398513  15.4429634  41.6715120
  71.8508238  15.4641119  41.5849106  28.9194386  46.2564706  19.2868070
  28.3857877  45.4919907  19.5036458  28.3827236  46.7566290  18.6719814
  71.0024611  69.6193890  58.7292447  70.5018012  68.9642308  58.2430974
  71.8564736  69.2111485  58.8714916  49.3513442  36.2909581  58.0860917
  50.0591735  35.9250829  58.6165112  49.7541063  36.4627971  57.2349243
   9.6524625  43.0841708  45.5199683   9.6576166  42.1779730  45.2117301
   9.2847035  43.5831645  44.7905915  35.2208334  66.7422018  24.3925628
  35.3722826  67.6607120  24.6153494  34.3691854  66.7390068  23.9556219
  50.4450158  56.8238033  48.0618890  50.2906962  56.6087582  47.1420124
  49.5690189  56.9169470  48.4363024  11.9346050  10.0773356  66.6829581
  12.8259528   9.9169790  66.3730924  11.3941421   9.4632371  66.1859523
  80.0980755  53.8795116  76.1381855  79.9635928  54.8253880  76.1970415
  79.8091295  53.5432639  76.9865248   3.0871063  57.3253101   2.5113624
   2.5272684  56.8045536   1.9354926   3.5777332  56.6780177   3.0178499
  40.6063968  35.9011501  65.7968013  40.5049088  35.0791629  65.3169377
  40.1891124  35.7378005  66.6426278   1.5673935  18.9467203  75.1187174
   0.7278736  18.4881735  75.0844674   1.9730733  18.6433010  75.9308704
  38.1984941  70.2398416  60.1347007  38.9441164  70.7135670  59.7661042
  37.4409046  70.5753941  59.6554361  26.7883706   4.4249778  23.9416759
  27.5435740   4.1644047  24.4689342  26.2301174   3.6476683  23.9223079
  61.9755221  69.6082443  67.1033150  62.1521758  70.5364308  66.9500334
  62.7589091  69.2857303  67.5488723  19.5364008  36.8602642  35.7277774
  19.0700941  37.2855581  35.0081144  19.7089827  37.5656514  36.3513768
  60.4990851  45.9714115  45.1929130  59.7999105  46.1455271  45.8230484
  60.0420837  45.7980809  44.3699075  41.2376046  43.7934140  88.6889122
  40.4797183  43.8853774  89.2663054  41.1012117  44.4520985  88.0079104
  14.0229509   9.8170579  28.8946670  13.4996572   9.1262873  28.4881803
  14.9089559   9.4565945  28.9306272  45.5799144  22.8090202   5.6682293
  45.8629658  23.1943019   4.8389696  44.9027995  22.1792481   5.4209758
  51.9558260  35.9621871  74.5139925  51.0136929  35.8236802  74.6111154
  52.3543989  35.3116609  75.0920817  59.8033094  61.1564736  83.8707764
  59.2515410  61.3300662  84.6334356  59.9226415  62.0134655  83.4614397
  84.5201641  38.7880047  47.9677768  85.1391896  38.4500689  48.6149542
  84.6606675  38.2421643  47.1941174  80.6284723  60.5547408  73.7513932
  81.5367800  60.4673591  74.0404840  80.6466347  61.2723492  73.1181949
  19.8423195  60.1532754  41.3083264  20.0939424  59.5937963  42.0431058
  18.9816765  60.4947577  41.5510511  14.0366955  67.4021498   4.7231224
  13.2140248  66.9343479   4.8666710  13.7814199  68.3227252   4.6630630
  63.0713256  23.5986625  34.4789356  63.5380964  23.4792305  35.3060346
  62.4474272  22.8733398  34.4491087  65.8451268   9.0454112  71.0386675
  66.1256057   9.8222583  70.5548577  66.3560656   8.3300073  70.6600242
  51.4791211  56.0257491  29.7561563  52.2149616  56.6299429  29.6575644
  50.7268958  56.5910667  29.9316697  78.4083066  42.5312473  78.3536243
  78.5435111  42.5773100  77.4071415  77.4970405  42.7962274  78.4785702
   5.6216216  27.2058588  18.8313418   5.5347771  28.1588290  18.8545273
   5.3981419  26.9233418  19.7181749  48.1742342  27.8549549  14.2420119
  48.4144555  27.7891594  13.3177844  48.1336825  26.9475874  14.5441236
  13.7731382  23.7406902  80.0129084  13.7005613  23.5903308  79.0703817
  14.6246531  23.3728683  80.2492580  48.7722333  36.7913899   1.7473248
  49.5774141  36.8113474   2.2645455  48.1931459  36.2002189   2.2283722
  42.3622054   0.7609031  44.7596508  43.1939899   0.7747148  45.2331228
  41.6978670   0.6862204  45.4447120  43.5030997  45.1822336   0.9654933
  43.4509630  44.2668686   1.2404851  42.8639227  45.2562004   0.2568230
  11.8650158  50.8467882  29.7050186  11.0440264  50.3842229  29.5369664
  12.0276054  50.7145264  30.6389904  44.9112265  48.9432183  87.9192486
  45.5465691  49.2676772  87.2810495  44.6370825  48.0937144  87.5736765
  67.1540314  66.9812200  34.4934106  67.5938010  66.8688724  33.6506695
  67.5710232  66.3397080  35.0685733  26.3204328  54.1607110  81.6593792
  26.6032821  53.9247898  82.5428775  26.0423103  53.3327207  81.2678285
  79.2195566  62.0009443  39.5028758  79.8510964  61.7564018  38.8264230
  79.2971615  61.3123223  40.1631857  83.8082310   5.7908229  48.3437134
  84.5705117   6.1997495  48.7535170  83.3812056   6.5031348  47.8678007
  71.8686358  38.1440445  14.0975175  71.3243764  37.9552948  14.8619697
  71.6753154  37.4345194  13.4847915  13.7525960  27.4609264  19.2512153
  13.0264617  28.0229072  18.9807741  14.4282276  27.6073601  18.5891647
  16.9211432  10.7411514   9.2849005  16.4311679  11.3091596   8.6903229
  16.2697844  10.1234237   9.6171296   1.5158187  61.0537750  23.8741127
   2.4151164  61.1477065  24.1882343   1.6030319  60.6248745  23.0228372
  43.5215536  40.7639706  23.9318729  44.1159058  40.3585498  24.5632297
  43.2163805  40.0369350  23.3891756  56.3884382  27.3575235  67.4380681
  55.5625937  27.5320712  67.8894503  56.9722495  27.0331107  68.1237448
  11.8123142  10.2803721  17.7472023  11.2919067  10.3749549  16.9494166
  11.3475775  10.8041429  18.3998246  57.6818600  47.6162150  42.7168080
  58.2110778  48.0457727  42.0447660  57.2764975  48.3367283  43.1992743
  43.5002923  35.2825917  79.9668816  43.5389988  35.3995590  79.0176439
  44.3331659  34.8675946  80.1912271  30.8191227  54.8007970   1.7210304
  31.2506526  55.5217546   2.1795430  29.9400644  55.1291177   1.5321021
  65.4028838  60.0204499  13.2462495  65.2476445  59.7351849  12.3458293
  65.5440829  60.9646700  13.1773795  79.6027383  38.1036167  75.5142304
  79.5316160  37.8488382  74.5943057  78.7107162  38.3423469  75.7662945
  26.4267107   7.1079065  76.7884102  25.8265276   7.7217150  76.3650294
  26.0834079   7.0114296  77.6767048  40.4885265  55.2769636   4.2829918
  40.2088038  54.9489442   5.1376205  41.3839260  55.5838202   4.4255775
  30.8742731  11.3126696  80.3937996  30.1453808  11.1680534  80.9971520
  31.2848652  10.4527089  80.3037238  76.2704995  62.7766223   5.8133475
  76.3035481  61.8836658   5.4701736  77.1741373  63.0876408   5.7591434
  10.1049658   2.9993623  69.4629093   9.2970688   3.2198815  68.9993301
   9.9033497   2.1832000  69.9205793  76.6707067  40.6306494  19.1063565
  76.4768308  41.5496707  19.2908661  77.0603855  40.6389151  18.2321059
  42.2256674   7.9810953  81.7520843  42.3103434   8.4789751  80.9389561
  41.2936614   8.0273397  81.9652932  41.4629248  51.0188900  81.7157919
  41.2629856  51.5682127  82.4737502  41.8020242  50.2064641  82.0915679
  80.9031785   9.0267340  15.6700802  80.4302197   8.2788268  15.3051463
  81.0870910   8.7753337  16.5751801  43.4240870  37.6902104  77.2019268
  44.2920340  37.5401757  76.8272412  42.8793125  36.9968547  76.8294882
  27.6658832   1.3596280  78.6299795  26.9710734   0.7957357  78.2901313
  28.0348910   1.7797399  77.8530811   7.4673174  54.2136288  50.1348975
   8.3103487  54.0215180  50.5455354   6.8197719  54.0040627  50.8079493
  10.0106269  43.4840356  84.3938648  10.1471131  43.3316315  83.4587839
  10.8931900  43.5112920  84.7634204  57.9714392  33.4975131  82.7424421
  58.1448569  34.0301761  83.5186046  58.4873209  32.7025912  82.8773390
  27.6448236  59.9887816  27.1244875  27.1742148  59.1651697  27.2526386
  28.4464180  59.7377021  26.6655350  77.6768618  49.4695878  79.2441634
  77.0545830  48.7498932  79.1390891  77.1309967  50.2320928  79.4361249
  45.9519737   6.2785662  14.7962696  46.7228943   5.8408822  14.4352350
  45.7730920   6.9923011  14.1840477  76.7808519  59.7435012   0.0631246
  77.0506008  59.8719401   0.9725039  75.8839363  60.0761910   0.0300812
  34.5115220  57.8040111  84.9414636  34.8568346  58.6766684  85.1297726
  33.8813812  57.6392814  85.6429040  10.0376486  61.7166394  62.5759336
  10.4144506  60.8545162  62.7519893   9.1579642  61.6746672  62.9509345
  77.0485050   9.8819918   8.4390624  77.8758364   9.8376391   7.9597009
  77.0631034  10.7400027   8.8631334  65.2653911  49.6657242  60.4849350
  65.4120992  50.0380237  61.3544760  65.4304307  48.7292350  60.5943964
  48.1649212  15.4919477  10.7565458  48.9326747  15.4803436  10.1850113
  48.0019205  14.5703678  10.9574268  35.1253729  62.8864445  26.1933227
  35.5110203  63.6647683  25.7911784  35.8302909  62.2389325  26.1862020
  43.1064076  21.1788935  15.5138207  42.8522512  20.2756295  15.7028987
  42.8286502  21.3214504  14.6089670  63.3714421  43.8004672  59.9407326
  63.0510871  43.2204795  60.6315429  62.5946814  44.0044386  59.4198965
   3.7978978  52.5879740  25.8190477   4.0994791  52.0072410  26.5176390
   4.5863624  52.7828954  25.3125291  53.3840819  71.2759332  17.3888846
  52.5423832  71.6699019  17.6181524  53.5613199  70.6592943  18.0992190
  17.7896696  69.3440033   2.3825686  18.1329364  68.4505256   2.3727027
  18.2491380  69.7691247   3.1067181  57.7920388   6.1705190  44.1853659
  57.6474917   6.4859036  43.2932502  57.9398835   6.9645296  44.6990984
  41.5870293  11.8100669   7.4634709  41.0333915  12.5907445   7.4795782
  42.3344134  12.0349920   8.0175987  40.2505791  42.2043658  65.2495084
  40.0576075  42.7946345  65.9779154  39.7766979  41.4000431  65.4610114
  56.1836598   5.2404871  84.7146940  55.2604857   5.3494862  84.4864382
  56.4521664   6.0986278  85.0429173  52.3570185  14.1994442  13.7916230
  52.7677953  13.7786696  13.0363463  52.3441999  15.1304341  13.5695297
   4.9560965   2.3506391  64.9398524   4.8028956   2.8333028  64.1275734
   4.1331534   2.4270557  65.4227157  27.1779818  42.5542608   8.2459666
  27.4468993  42.1360774   9.0639139  26.4004551  42.0675522   7.9724727
  62.2561635  14.0073056  12.1798038  62.0140875  14.0141542  13.1058622
  62.9910955  13.3961487  12.1288722   0.2706673  26.9899653  21.9318723
  -0.4844193  27.5338888  21.7077668   0.2911669  26.9912204  22.8888519
  38.2042377  22.5669855   9.5605542  38.7330966  21.7707525   9.6110815
  37.4816665  22.4136158  10.1693238  81.6347217  15.7576854  19.8942117
  81.5971721  16.4273502  19.2112981  80.7916569  15.3082092  19.8355206
   8.0875383  36.9573724  57.4321221   8.3132413  37.0692718  58.3555768
   8.1573677  36.0147582  57.2810119  58.2079516  10.1340234  62.1919555
  57.9892506  10.2435760  63.1173743  57.4006885   9.8110107  61.7916794
  73.0913739  68.2905171  73.1550916  72.7732410  67.4022706  72.9937179
  72.6991696  68.8158087  72.4576130  85.9041862  45.5793495  88.7318500
  86.2152842  46.2536783  89.3357793  85.8170897  46.0312360  87.8925379
  46.7599390  66.6051574   8.0444403  47.1107488  65.7187962   8.1312048
  45.9359257  66.4913201   7.5708634  52.5442516  22.8925012  42.6331314
  53.2872687  23.3835408  42.2823644  51.7784515  23.4164286  42.3980099
  57.5550999  46.2169016  19.2624177  56.8454400  46.8338924  19.4411266
  57.1224345  45.4646858  18.8584328  80.8992073  48.5006419  49.8233078
  81.1468712  47.6410585  49.4827042  80.1343353  48.7520971  49.3056467
  48.5031343  55.4906366  69.8611979  48.6676249  54.5498565  69.7971079
  49.3168247  55.8527014  70.2119810  19.1274594  69.3325100  86.9065069
  18.9036021  69.7823887  87.7212025  18.4535737  69.6107673  86.2862790
  62.2358131  25.0448594  50.2850259  62.9862426  24.6705394  49.8235371
  62.5815089  25.2934645  51.1423017  11.6071853  41.0616507  15.5367129
  10.7074175  40.8569360  15.7911566  11.5543235  41.2490457  14.5995253
  43.6331349  69.3894481   9.8793701  44.1645749  69.9266911   9.2918555
  43.1403576  70.0219338  10.4022126  77.2224139  24.1386367  40.6237596
  77.8741042  24.5101621  41.2183185  76.4360083  24.0415971  41.1607711
  32.3681917  33.6870843  86.4631029  31.9167180  33.0982630  87.0678282
  31.7762428  34.4333519  86.3686936  51.7506606  25.0052451  85.2926513
  51.1726067  24.4611842  85.8275188  51.9239612  24.4766816  84.5136652
  48.5440953  59.6156588  12.8784257  47.6224082  59.3686702  12.8027869
  48.6262730  60.4023202  12.3393131  19.4580488  43.7129688  61.9250072
  19.4875234  43.0420950  61.2428845  19.0771351  44.4773988  61.4928229
  81.5915300   8.9687331  78.2919549  82.1323992   9.4444736  77.6615873
  81.5395422   9.5506246  79.0501973  50.1258373  31.7730061   8.2450079
  50.9738586  31.5197765   8.6096536  50.1352129  32.7300563   8.2591093
  53.5873955  20.0455573  17.0876122  53.6970108  20.7212906  16.4185824
  53.0010221  20.4403774  17.7329920  52.7660531  44.6782868  20.7306754
  53.0144402  45.0713182  19.8939783  53.2062581  45.2167708  21.3883124
  70.6618011  18.9719777  44.6475283  70.8052112  19.6420601  43.9792058
  69.7115087  18.8604952  44.6748754   2.8926052  39.0883532  66.4770163
   1.9509094  38.9809516  66.3432039   3.0427340  38.7893005  67.3738221
  27.3581393  21.3713174  75.3398656  27.9623464  20.6290232  75.3527071
  27.4259958  21.7505636  76.2161073   9.0080793  59.8761906   2.4641437
   8.8726507  59.9556760   1.5199122   9.4558836  60.6854155   2.7108382
   5.2837364  14.9710946  54.2793207   5.3997030  14.1592998  54.7730543
   5.2192900  14.6893111  53.3668096  86.4256830  56.1625761  21.8815123
  87.2164091  56.5478655  22.2590518  86.2050698  55.4419903  22.4716968
  74.3929458   4.8082632  76.9931101  74.4566398   3.9423347  77.3960280
  73.5432064   5.1435577  77.2790337  46.9675789   8.7532957  49.4842711
  47.7904177   8.7082401  49.9712394  46.6176660   7.8631604  49.5223757
  30.6868247  52.9036885  25.2624054  30.1387497  52.7025644  26.0209532
  30.1652724  52.6254303  24.5095526  42.2277973  37.1686668  83.7514752
  42.3880362  37.2100503  82.8086906  41.9747596  36.2595352  83.9117356
  64.5446483  23.4377876  29.7611975  65.2451361  22.9411313  30.1841408
  64.2342430  24.0385319  30.4386831  80.5551414  67.7252428   8.1808746
  81.4253840  67.9963800   7.8886515  80.2536585  67.1185399   7.5046709
  84.2586528  32.5653731  30.0444916  84.6992919  33.0454328  29.3433413
  84.7717264  31.7635634  30.1449327  76.8594419  14.2625315  43.9197062
  77.7912321  14.4803844  43.8964934  76.8319890  13.3620509  44.2431453
  11.4786443  56.6175375  35.3984389  11.6488060  56.5507939  36.3380251
  12.2007553  57.1477660  35.0613258   0.0534620  55.7638974  42.4776707
   0.8466778  56.1747256  42.8215611  -0.2673276  55.2218752  43.1984605
  70.9649935  29.7804684  52.7769427  71.6290631  30.2803329  53.2516837
  70.2408732  29.6948608  53.3970660  38.3729834  71.1627936  40.4028566
  37.8351142  71.4895012  41.1240991  37.7982109  71.2022941  39.6384561
  74.1538529   4.2615680   1.2354852  73.3849408   3.7756969   0.9372650
  74.8809839   3.8886362   0.7370536  51.7538472  32.5079146  29.6558727
  52.5990822  32.7756182  29.2951173  51.6585562  31.5934669  29.3895328
  54.8989037  33.7194455  61.9076673  55.1686621  33.0142010  62.4959634
  54.0331704  33.4543200  61.5971092  84.1579039  50.8540927  59.4674525
  84.3543108  51.0490158  58.5511222  83.3807533  50.2963807  59.4324345
   1.9858619  42.2583957  15.1252655   1.0421063  42.3756511  15.0165992
   2.3710497  42.7044194  14.3709943  45.6169658  36.8616097  65.1310798
  46.3137463  36.7252084  65.7730481  44.9070398  36.2897502  65.4229937
  73.6195148  59.4704421  11.7211257  73.5334880  58.5481320  11.9623211
  72.8253341  59.6627164  11.2225883  14.4630510  46.2889500  24.9363076
  14.8645215  45.4418449  25.1298693  14.4573076  46.3384466  23.9804055
  53.2185034  66.3964357  29.7492418  54.1465517  66.5422959  29.5657122
  53.2004415  66.0728342  30.6499014  33.4738021  46.9051463  81.7291678
  34.1871906  47.4886405  81.9877084  33.9033974  46.0710665  81.5394557
  65.6869940  50.9442555  52.8917804  65.3057814  51.7762606  53.1722734
  66.3162003  50.7252873  53.5790826  85.0112701  10.5156502  57.2484495
  85.5169623  10.7850947  58.0152003  84.6401619  11.3297109  56.9081326
   9.9658934  13.3602479  68.1708770  10.2310524  13.7959552  68.9808657
   9.0720430  13.6657239  68.0161263  63.5196829  29.9465972  21.2257482
  63.3301497  29.7916189  20.3003884  62.7421695  29.6301960  21.6857429
  14.8355370  55.0255767  68.9947145  15.7052942  55.3100291  69.2755008
  14.2331213  55.6195265  69.4425435  36.8657906  31.6942791   0.3961623
  37.5132029  32.3293138   0.0898616  36.2285346  31.6394485  -0.3159685
  50.5498464  62.9924448  19.9313763  51.0657695  62.1916403  19.8377426
  51.1897380  63.6630601  20.1702189  32.7213916  64.9080258  39.9000666
  33.6108691  64.5572106  39.8554532  32.4372036  64.9570587  38.9873427
  83.8478770  35.2701275  51.5810358  83.6403835  34.9373362  52.4542071
  83.9407694  34.4850616  51.0413374  53.0315284  64.2432346  87.7174103
  53.7158399  64.4241114  87.0730243  53.5065724  64.0844846  88.5331085
  16.9408974   5.1962803  83.6212395  17.8091087   5.3295008  83.2408536
  16.6659988   6.0690575  83.9021711  70.7266854   7.7826321  69.3682743
  71.2490856   8.4743365  69.7743221  71.3373265   7.3328097  68.7843144
  34.7527770   2.9841249  71.9653174  35.6133843   3.3148605  72.2226130
  34.5488268   2.3140777  72.6177536  33.9375307  47.2261731  20.8201548
  33.1584910  46.8694407  20.3934570  34.3096503  47.8276566  20.1751925
  47.2006227  16.6049080  73.7735777  47.3297628  17.5467819  73.8850597
  48.0757017  16.2632599  73.5898793  68.0801581  26.7663625  86.5600645
  67.1489218  26.9668156  86.4659942  68.2555066  26.1174530  85.8785945
  55.5700869   9.4570963  61.6823331  55.2713376   9.1508049  62.5385844
  55.2488609   8.7981803  61.0668046  60.0096544  67.9869504  49.8460943
  60.4277362  67.4060916  49.2104509  59.1498637  68.1747588  49.4696375
   7.4080766  70.0488545  25.4732140   7.7132459  70.9509478  25.5698117
   7.8047478  69.5817801  26.2085542  84.3871145  70.1923800  51.7564096
  85.1954110  69.6919558  51.8680528  84.5206031  70.9828238  52.2794881
  16.2927022  49.7337358  20.8599361  16.4545067  50.4109286  20.2030791
  16.3224145  48.9123070  20.3694224  26.6850174  19.1785458  81.7526948
  25.8830802  18.8247955  81.3680012  27.3910618  18.7756097  81.2473476
  72.1009924  60.8510133  73.2205755  71.5435993  61.5933339  73.4540382
  71.5118175  60.2380933  72.7807642  11.4274228   5.3511097  70.7783090
  11.1284203   4.5675778  70.3168903  10.7077593   5.5696708  71.3703792
  49.1740850  62.5265771   9.8541133  49.0991336  63.1513911  10.5753772
  49.0566668  63.0560527   9.0653798   8.2833258  42.9206190  37.5684200
   8.0921141  43.6367864  38.1740389   8.9660192  42.4123758  38.0064274
  73.6893136   6.0521591  84.9690658  72.7571699   5.9457380  85.1588407
  74.0894440   5.2358186  85.2685914  49.9898027  11.4021071   8.3544165
  50.8423304  10.9787926   8.2532580  50.1301685  12.2989450   8.0507539
  42.4374657  40.4810960  67.4953944  42.9666735  41.2783171  67.5200824
  42.9036890  39.9027277  66.8917738  59.8449301  23.9956290   3.2986736
  60.4157812  24.7234515   3.0524309  60.2599161  23.2244324   2.9123134
  75.8401219  68.9007212  15.3847181  74.8937735  68.9607683  15.5152978
  76.2065139  69.5488574  15.9863061  79.4637192  27.7810236  27.2578199
  80.2987463  27.8880384  27.7133519  79.5411117  26.9382352  26.8106622
  26.1789863  53.6926584  44.6956789  26.2691469  53.9233937  43.7710903
  27.0354234  53.8880336  45.0759102  56.1664607  23.1420710  53.8222909
  56.9924687  22.8209470  53.4605976  55.5494870  22.4231527  53.6854272
  55.1757590   7.8572026  64.1288214  55.4915804   8.5375197  64.7235124
  54.5459291   7.3580499  64.6488144  30.5976154  60.8617676  70.3118232
  30.6722027  59.9936445  70.7080944  30.2171852  60.6991592  69.4486528
  43.0339441  55.6266641  12.6739276  43.5811889  55.0641470  12.1259043
  42.3509983  55.0448271  13.0075181  22.2602201  57.3411571  37.9818950
  22.8766036  57.3344716  38.7141918  22.7984363  57.1489008  37.2140457
  54.1177686  43.9364392  64.8056498  54.9220749  44.1389768  64.3278405
  53.7882892  44.7883237  65.0919502  42.5782716  15.5272192  80.4033134
  42.7784851  15.0863442  79.5776164  41.8310726  16.0896881  80.1994648
  68.4020471  39.8703491  74.1253870  68.6306501  38.9496096  73.9980633
  69.1167627  40.3540538  73.7113298  75.5125873  17.1192857  65.6873529
  76.2036560  16.5044782  65.4410449  75.9234826  17.9811549  65.6196888
  15.3186544  62.1108169  14.4517635  14.5088348  61.6660878  14.7020434
  15.6034030  61.6603442  13.6566380  59.2589860  55.8029024  65.0131696
  59.6894500  55.0329755  65.3848484  58.4419664  55.8816106  65.5056286
  49.1668225  35.3564743  75.0763412  48.6175913  35.0371200  74.3603875
  49.5021907  34.5628105  75.4933037  61.5126504  -0.1370787  78.9446822
  60.9436441  -0.0171545  78.1843653  62.2803722   0.4028731  78.7568334
  63.6729177  58.0855409  79.1388868  63.7637181  59.0381012  79.1140683
  63.2567820  57.8628329  78.3061419   6.1360632  40.1765472  51.9376642
   7.0077408  40.1712479  52.3331158   5.6773785  40.8917031  52.3785635
  58.4399114  58.3316310  42.8608714  57.9649835  57.6531800  42.3808927
  59.3081012  58.3467674  42.4580697  74.4082160  66.5500711  16.7378388
  74.2976524  66.5829742  17.6880624  75.3070653  66.2461211  16.6116793
  16.8104824   0.7827062  34.3389787  15.9454400   0.3729096  34.3393646
  16.6674626   1.6444262  34.7304067  62.7859944  10.1544460  80.4881785
  62.3035322  10.3284952  81.2963672  63.0177448  11.0217573  80.1560721
  15.0651002  53.2389846  12.4007433  15.1457513  52.4802788  12.9787508
  14.1581285  53.5258605  12.5072161  52.4432684  38.8773668  88.4308874
  51.9046454  39.3455631  87.7929930  52.3739586  37.9579034  88.1739532
  61.7670521  54.3394307  61.7411000  62.5485373  54.3532045  62.2936605
  61.5840986  55.2617466  61.5619541  17.2679572  43.5660498  24.0259929
  17.8565627  42.8112747  24.0165144  17.0477878  43.6864993  24.9497077
  41.6315853  67.4913829  83.0326975  41.3501689  67.7677245  83.9048626
  42.4371109  67.9834447  82.8738403  68.0788614  61.9188923  79.4308601
  68.4381822  61.7145979  80.2942164  68.6028033  62.6581003  79.1221721
  75.3303407  71.2202698  21.2368599  75.0652395  71.5441353  22.0977109
  74.5112543  71.1418712  20.7477965  37.1946234  30.7474942  66.8931819
  38.1123988  30.4897504  66.9797174  36.7506721  30.2974812  67.6119499
  54.0821849   7.9194092   2.3818514  54.8304427   7.3815829   2.1228437
  54.2870259   8.7922013   2.0464322  36.0979898  18.1881357  76.8714599
  35.1690654  18.4165749  76.9053253  36.1940925  17.6962253  76.0559721
  69.7386796   1.2287289  58.2476358  69.5883982   2.0697948  57.8160626
  69.4873339   0.5759540  57.5942277  42.6377439  22.2639565  70.8461449
  43.4368962  22.5702959  70.4174916  42.5438608  22.8312590  71.6113806
  47.3117046  16.4182941  29.6761773  47.0643480  16.2422584  28.7684009
  48.0149264  15.7948761  29.8580039   6.4530628  58.6948903  78.4493191
   6.3964700  57.8516542  78.8987431   7.2673444  59.0828773  78.7696992
  57.8217294  53.8936935  24.4138136  58.0656417  54.0654515  23.5042874
  58.3439701  54.5135615  24.9229896  66.5948033  24.7127574  33.7812634
  66.1508169  24.0020712  34.2439005  67.4134927  24.8365315  34.2615336
  25.7188858   1.2189159  34.9168048  25.4434397   2.0428194  34.5148791
  26.3011618   1.4828541  35.6292114  18.9089995  17.8765202  61.7746102
  18.2306114  17.3480938  61.3541496  19.0396454  17.4634880  62.6281721
  44.8639544  66.7143491  30.7844442  44.5182217  66.7786073  31.6747092
  44.5297305  67.4939381  30.3408597  64.8812826  69.7136790  27.3095629
  63.9843527  69.4212301  27.1476301  64.8678341  70.6496401  27.1094934
  71.6612803  57.2422599  25.2309316  71.3891225  57.5441730  26.0975402
  72.5948008  57.0529752  25.3254977  71.9612977  38.3941198   2.6825623
  72.4242659  38.0454014   1.9207961  72.6484146  38.7854217   3.2219926
  45.0026563  43.7261234  74.6408210  44.5681921  43.2311073  73.9462480
  44.2895720  44.1670490  75.1026946  51.3580465  16.3883095  36.3083891
  50.7435024  16.8045925  35.7040085  51.1884958  16.8101935  37.1507063
  75.8666690  36.6819323  36.8041001  76.1366577  37.2233988  36.0623778
  76.6880363  36.4080938  37.2122667  80.0291433   8.3217096   8.1028641
  80.9475852   8.0923156   8.2445498  79.8996544   9.1194664   8.6157467
  16.0906384  54.6836507  81.2931650  15.3008782  55.0449512  81.6956232
  16.7703649  54.7943952  81.9579502  57.8843325  70.1520932  67.1563505
  57.0724317  70.6102465  66.9392229  58.4537220  70.8316980  67.5171340
  11.6585130  16.0574754   6.8906290  11.9188293  15.2255782   6.4951366
  12.3828071  16.2820032   7.4747670   8.1893835   1.9740626  61.8854834
   7.6719992   2.1201273  61.0935172   7.7532994   1.2442212  62.3252492
  16.2373691  14.0781567  28.4174579  16.2749975  13.1952927  28.7853805
  15.3134053  14.3218300  28.4735487  45.8693895  25.3631739  82.2211299
  44.9123365  25.3511437  82.2094452  46.1160519  24.4929692  82.5343924
  23.0657417   6.7389252  52.4926354  22.5116332   7.4369008  52.8419570
  23.9476998   7.1109216  52.4920494   5.3739208   4.6437824   2.8320708
   4.9914538   5.4977161   3.0339323   5.4525785   4.6360363   1.8781396
  31.6889922  10.8531527  18.6800354  31.8203208  11.4362170  19.4277122
  32.5716209  10.5754211  18.4349567  38.7167049   7.9668450  72.3284336
  39.2933198   8.4205051  72.9432016  37.8328118   8.1980071  72.6139660
  75.2887298  61.3065288  10.5875010  74.7556380  60.7289656  11.1338212
  75.3070948  60.8773839   9.7320893   3.0083067  52.5597372  44.3194649
   3.1723782  51.6740397  43.9956558   2.1221044  52.7636659  44.0206498
  56.1120997  31.9833706  25.4072979  56.1225295  32.4991596  26.2135762
  56.9855717  32.1036357  25.0347191  71.8605234  21.9744545  62.2787493
  72.5519618  21.6961457  62.8793233  71.1603981  21.3343342  62.4064302
  82.6947218  55.5065215  40.4368345  82.8814658  56.0243488  39.6537550
  82.1118179  54.8115758  40.1310481  42.5420934  51.9388624  46.8435757
  43.4515294  51.8922025  47.1385007  42.1776433  52.6916277  47.3091424
  57.9180855  71.1862767  70.6793503  57.6453405  72.0190813  70.2942807
  57.7014595  71.2694301  71.6080001  66.3255713  56.6408622  69.1098722
  65.9870735  56.7366415  70.0000842  66.0075550  55.7846446  68.8235352
  50.3012748   4.5201380  55.2755223  49.8819237   4.2000940  54.4768057
  51.2388673   4.4765074  55.0877761  56.3380006  68.7736126  16.8026398
  56.3518529  69.5582828  17.3506658  56.8107745  69.0268257  16.0097970
  43.4427587  66.9451670  23.1556093  44.3161717  67.2074529  23.4464489
  43.5635108  66.0655336  22.7979838  77.8454887  32.5982115  85.3105254
  78.6337834  33.1305511  85.2035775  77.9033339  31.9423109  84.6157735
  84.6553037  39.4893474  86.7849821  84.9965740  39.5436532  85.8923359
  83.8532896  40.0115357  86.7669625  27.5903384  53.0631729  53.3134884
  26.6515304  53.2379513  53.2477322  27.6733061  52.1276275  53.1288181
  78.4871075  48.3576722   9.9114716  78.5993062  47.8864910  10.7370814
  78.5439626  47.6790800   9.2387815  69.3807953  49.1489920  85.0195241
  68.6877161  49.7631043  85.2618858  70.1536646  49.4625724  85.4891752
   5.7177082  11.2265790  20.5358045   4.8013746  11.2486370  20.8116271
   5.9957655  10.3255713  20.7004285  74.2383968  20.7695165  68.8946618
  73.6665376  20.0023452  68.9202956  73.6384215  21.5142092  68.8535003
  52.2903959  40.4917090  64.3577528  52.3610430  40.4364103  63.4047665
  52.1020545  41.4140977  64.5308382  10.5617891  39.7894562  13.0914333
  11.0212525  39.5508295  12.2863355   9.8621825  40.3757057  12.8031730
  80.7110769  47.9433055  41.5746451  80.8942328  47.1919474  41.0106001
  80.2974073  47.5651021  42.3505777  63.0250748  22.6364247   2.8179346
  63.0505622  22.1895916   1.9718126  62.9575387  21.9297626   3.4600399
  73.4238375   4.4448543  30.1308595  73.6456507   4.4785456  29.2003244
  74.2674441   4.4964188  30.5801934  15.5133317  61.2521435  31.3474615
  15.8940272  61.6966102  32.1049257  15.7225873  61.8204148  30.6061710
   5.6352609  64.2130323  54.2850429   5.7701219  63.4433444  53.7322092
   4.9430923  63.9530014  54.8929232  14.3697247  47.5815816   1.8933251
  14.7570508  47.4752783   1.0244696  14.9452949  48.2041297   2.3376051
  53.5076068  56.4537466  86.4034386  53.4682517  57.2655794  85.8978592
  52.6075165  56.1280642  86.4040006  83.8062632  13.7702809  42.7369918
  84.4300235  14.4175448  42.4080476  82.9698157  14.0238212  42.3467292
  71.4957353  62.0318687  48.3924320  71.2564766  62.9578228  48.3524817
  71.6979784  61.8763370  49.3150042  71.7610617  49.3292745  53.1410461
  71.0023567  48.8514231  52.8059989  71.3876497  50.0061192  53.7055606
  78.6099188  47.7744461  88.8140363  78.9811363  47.7728302  89.6963213
  78.9917348  47.0047423  88.3921305  35.2133683  24.4733805  13.2756029
  35.9866941  25.0202654  13.4138633  35.4336527  23.9348236  12.5155614
  72.5473348  42.5503580  61.3940971  72.6904363  42.5297903  62.3403163
  72.5013199  41.6289970  61.1387375  79.6544123  18.8787187  62.6798378
  79.6911591  19.1010606  61.7495445  78.7256050  18.7250613  62.8528644
  39.1709182  32.2281344  87.8107996  40.1069306  32.0386965  87.8758066
  38.9768455  32.1586730  86.8760575  43.1646463  50.6604307  16.6549663
  43.7008282  49.8800117  16.5146557  43.4343009  51.2639323  15.9626484
  19.9389247  45.3800814  85.3202156  19.6773028  46.1233406  85.8636782
  20.2280215  45.7749069  84.4975567   1.0405893  12.0305283  62.9058383
   0.1896181  12.2537535  62.5286773   1.0784872  11.0750528  62.8626853
  30.3343532  16.3024722   1.6525268  29.5300132  15.7875771   1.5880909
  30.2552921  16.9579642   0.9594818  76.0541654  20.5206939  55.0675479
  75.6358540  20.0088767  54.3752397  75.4413668  21.2353653  55.2406213
  31.3978923  40.6996360  67.4764350  31.7948665  40.0472653  66.8993252
  30.5070717  40.3807832  67.6213607   7.1154327  52.8336724  16.1570278
   6.5377376  53.0517651  16.8884208   6.9549929  51.9042028  15.9940027
  86.9324315  27.0821905  16.1012934  86.4439522  26.9967275  16.9200216
  86.3833561  27.6417631  15.5520881  75.2839455  14.1472227  47.9844749
  74.9254235  13.4902548  47.3877446  74.8370668  14.9587443  47.7437177
  82.4715503  22.9762005  59.3636851  82.3181286  23.6245666  60.0509370
  83.2764076  23.2673347  58.9351092  63.0106692  66.1191052  60.6047670
  63.2400043  66.7823437  59.9538047  63.5518094  66.3324393  61.3649562
  37.1532927  13.2977377   1.0365998  37.0143359  14.0072315   0.4092710
  36.8716911  12.5092540   0.5726754  59.6374574  19.1933900  35.0571213
  60.3930823  18.6114726  34.9756665  59.2130778  18.9223563  35.8711695
  53.0244575  15.5025337  71.8163067  52.8561724  14.8707943  71.1171520
  52.9330202  14.9963810  72.6235740  61.3658528  62.3720057  68.7375370
  62.3216853  62.4096457  68.7721687  61.1403925  62.7770217  67.9000637
  79.3122305  18.9984744  26.3198538  79.5106606  18.3179609  26.9630946
  78.5866837  18.6403731  25.8084076  75.0412444  50.6309420  82.8730036
  74.1481092  50.9692848  82.8092421  75.1049872  50.2897142  83.7650418
  76.4395003  36.1660467  61.0464426  75.6523054  35.8576135  61.4952467
  76.5211546  35.5923535  60.2845761  12.1031118  64.1502295  41.0754507
  11.2235250  63.8441362  41.2965066  12.5231312  63.3949907  40.6638321
  58.6047370  28.2719291  63.6681211  58.8003789  28.3924525  64.5973306
  58.5332102  27.3236107  63.5594562  13.6018880  15.0504550  28.6732234
  13.9105657  15.6615142  28.0042267  12.8661038  15.5009189  29.0878749
  61.1576654  32.6450464  45.6178041  60.3881665  33.0664429  45.2350140
  61.1320333  31.7490793  45.2819205  74.7147690  38.5118389  26.7970218
  74.9436859  38.2178002  25.9153359  74.5788514  39.4550723  26.7071936
  35.9972730  66.5693835  49.8330714  36.8142105  66.2458042  49.4534117
  35.3151127  66.0393350  49.4208363  86.2383101  39.6823827  18.1285727
  86.2413227  40.6297690  18.2652548  85.4626443  39.3751577  18.5978138
  10.1550645  34.4958272  62.6877565  10.1785504  33.5788242  62.4142866
  11.0749112  34.7364144  62.7983534  52.7958090   9.6252904  83.7160179
  52.7815719  10.5451936  83.9802287  53.4712345   9.5809099  83.0392146
  70.5609452  45.5634954   8.3846629  71.4463764  45.9230437   8.3301790
  70.6900699  44.6417238   8.6080368  61.8886838  33.7339006  85.0822462
  62.2641075  33.6277119  84.2081679  61.5373457  32.8701871  85.2985616
  71.1980083   5.5268368   0.7266890  72.0199931   5.6823779   0.2615226
  71.2380082   4.6051965   0.9820535   4.3566877  62.3421027  82.2437210
   4.7424001  61.4686057  82.1769329   3.8028372  62.3003935  83.0232989
  11.6687494   9.8997734  24.1528406  11.7223550   9.5417263  23.2667478
  12.0270256  10.7840556  24.0759317  60.1742742  63.0124439  57.9031086
  60.4922575  63.9117730  57.9826429  59.7625733  62.9794547  57.0396006
  15.3720770  40.7228016  21.7958305  15.4481530  41.5715886  21.3599351
  16.2768534  40.4433337  21.9355056  83.5309194  49.6920016  18.1044317
  83.1161911  50.5514226  18.0294130  84.4487153  49.8848578  18.2959757
  50.0239754  23.9550881  41.9396157  49.9648663  24.2298101  41.0245934
  50.5017882  24.6629811  42.3718361  17.1855424  57.3372985  39.2667416
  16.7302411  56.9949245  38.4975130  18.0584161  57.5651402  38.9467237
  67.0072659   0.7829341  76.7825090  66.1715962   0.3176808  76.7447280
  67.4117456   0.6183584  75.9307210   0.8042062  41.6996786  83.2421219
   0.8699063  40.9591602  82.6391727   1.5014280  42.2950595  82.9671032
  22.6234431  62.0417521  40.6674643  22.3630489  61.5744421  41.4612200
  22.7343362  61.3545502  40.0104346  37.7556747  30.9955951  71.2490736
  38.0815677  30.6458559  72.0783553  36.8033921  30.9934704  71.3459509
   4.6850382  32.4988870  83.5969303   4.6444454  32.7146052  82.6652384
   4.9873341  31.5909583  83.6196125  10.1691180  68.5292403  12.7584505
  11.0970828  68.6536685  12.9575253  10.0734371  68.8404337  11.8583196
  44.4580232  58.3090109  52.2153341  43.6785796  58.6198046  51.7547836
  45.1179264  58.2094968  51.5291443  72.2421841   2.3034555  37.1413164
  72.7144548   3.1232621  36.9960259  72.7041882   1.6619987  36.6015783
   1.1194827  70.1592064  22.8229798   1.3674294  70.9469100  23.3070019
   1.7117332  69.4815004  23.1488413  35.3940194  47.7146194  88.7329519
  35.4944631  47.7900727  89.6818722  34.4889125  47.9777152  88.5662364
  22.0767502  22.8000975   8.2902721  21.3682220  22.4506644   8.8307498
  22.2063529  23.6920140   8.6126382  61.2262091  65.9850319  48.5229583
  60.8806248  66.3465393  47.7067992  62.0300997  65.5345810  48.2639492
  17.9428827  32.1928818  18.3606951  18.7899123  32.3601975  18.7739482
  17.4629647  33.0155153  18.4565312  70.2105950  42.8910689  70.0038142
  70.6811794  42.0680538  70.1358306  69.7634808  43.0474039  70.8356075
  53.8943025  20.5260428  77.2921659  53.0660992  20.5351745  77.7719865
  53.6609706  20.2149002  76.4175356  55.5422849  16.0256650  65.2673589
  56.0202621  16.3923726  66.0111971  55.4016629  16.7702066  64.6824528
   5.0276608  19.5623694  22.5988528   4.9302364  18.6176120  22.7179060
   5.1104506  19.9084733  23.4874415  68.8295279  46.4408840  34.9004789
  69.2504717  47.1548777  34.4216770  67.9714111  46.3481743  34.4866283
  24.3679476  22.3011568  32.2943604  23.4556582  22.5506795  32.1470575
  24.8543365  22.7539629  31.6054306  67.6440280  38.0883596  57.5483966
  66.9263884  38.7208772  57.5145337  67.7393031  37.7856521  56.6453337
  79.2856655  33.4481109  51.4826494  79.5534145  34.2249309  51.9736617
  79.7769651  32.7306875  51.8828495  11.6450334  64.7013228  49.3508153
  11.5462090  64.1582719  48.5687914  10.8717757  65.2655067  49.3499161
  33.6629984  55.5499535  27.2791712  34.5655096  55.7165732  27.5510964
  33.1383936  56.1494016  27.8099099  57.8326198  60.1041243  73.3211733
  57.4971936  59.2831976  73.6814515  57.5699888  60.0868134  72.4008706
  69.1333986  17.1650996   7.7148933  68.4961701  16.8226942   8.3417347
  68.7191101  17.0420873   6.8608061   2.2270559  10.7240426  66.2813094
   2.0235103  11.0448812  67.1598671   1.4230057  10.8667801  65.7819487
  51.5035682   7.7094831   6.5073516  52.1059956   7.5935939   5.7725844
  51.5528868   8.6431285   6.7125486  26.4112843  51.5412476  20.3872417
  27.1359380  51.0517887  20.7765216  25.6545627  51.3215089  20.9306745
  49.4702438  48.5617266  65.1835959  49.1386953  48.4895034  66.0786329
  48.7968813  49.0577876  64.7180443  47.8586198  54.6400981  53.4042881
  47.2101312  55.1049391  53.9330766  47.3561380  53.9654551  52.9475599
  34.4587288  46.4317637   3.9881048  34.0221237  47.2809476   3.9210643
  34.0639045  45.9039899   3.2939864  17.2978111  38.3745487   0.5730233
  16.9097206  39.0159507   1.1681881  16.8370810  37.5582750   0.7670772
  68.4314944  61.4653815  11.7016555  68.7389008  61.7891604  12.5483552
  68.5341167  60.5153055  11.7569374  75.3883695  11.0017069   5.5367304
  76.1720123  11.3719999   5.9429554  74.8842790  10.6463318   6.2687367
  38.9948731  56.2890880  37.7119251  39.5202131  56.9479084  38.1660235
  39.5988641  55.5613683  37.5641052  48.6571640  58.9417585  78.0298360
  47.9869199  58.6147872  77.4297573  49.2334921  59.4718670  77.4793247
  17.0902292  44.3282272  18.6475926  16.8102798  44.7702822  17.8460643
  17.8132178  44.8627626  18.9759084  56.4670386  25.7683926  27.3681118
  57.3378348  25.4296389  27.5759382  56.0722084  25.9530501  28.2203104
  21.3154064  28.6371759  70.2613788  22.0217500  28.1585148  69.8275653
  21.7452193  29.4001711  70.6478124  30.7088170  48.9759716  49.3822929
  31.4674094  49.5587047  49.4168105  31.0731759  48.1005025  49.5127851
  14.7700574  58.7551672  35.2876641  15.1347875  59.5638753  35.6471010
  14.1164297  59.0485855  34.6529135   7.3158937  16.9430591  10.8720271
   6.4203736  16.9444308  11.2100710   7.8321752  16.5283817  11.5632057
  74.8950614  21.2381820  19.8150565  74.9358039  21.0782952  20.7579288
  75.7804468  21.0526206  19.5021803  15.0966516   6.4960495  75.1583412
  14.3594478   7.0533042  75.4078000  15.4158771   6.8738145  74.3388166
  62.8336249  67.4876012  24.1317614  62.9130873  66.7472214  24.7332224
  62.3947840  67.1250115  23.3622296  79.3606785   7.8839656  59.3673401
  79.7671252   8.2600214  58.5865617  79.5779955   8.4971889  60.0694529
  66.8341887  42.3534373  33.9790205  67.7334230  42.6606045  34.0941633
  66.6460827  42.5049472  33.0527956   8.6057031  61.7643882   5.8624008
   7.9804387  61.0441784   5.9434808   9.3561666  61.4905459   6.3897024
  51.2453807  60.4780370  62.6986962  52.1238209  60.2934104  63.0310929
  50.6972456  60.5223318  63.4821615   2.0057007  15.2426413  38.7015427
   1.6400606  15.8760892  39.3190238   2.9414636  15.2252281  38.9022325
  11.2508631  25.5703281  17.0374723  11.9703839  26.1588780  16.8091508
  10.4809843  26.1376766  17.0778965  68.6396089  57.0521108  32.0129883
  68.0983501  57.2427248  31.2468702  69.5221927  57.3178661  31.7548180
  47.1283234  53.5983346  50.7223802  46.4430003  54.2074503  50.4475311
  46.7107924  52.7376047  50.6900721  58.3270150  19.2660414  10.7634263
  58.0883289  18.9149601  11.6213323  57.7884705  18.7728952  10.1445495
  71.5495798  61.2102329  44.7313507  72.4805380  61.0855045  44.5469830
  71.3010022  61.9703813  44.2054082  51.7371525   4.7668295  37.1175114
  51.0845925   5.2166203  37.6542474  52.1595408   5.4657610  36.6181972
  60.7853127  14.1860289   6.0747861  60.4279631  14.8655893   6.6463898
  61.4553496  14.6347598   5.5591090  51.9282249  19.3527327  65.4875328
  51.9568402  18.6071413  64.8879441  52.6872255  19.8835902  65.2459954
  80.1593631  69.5810204  88.2491981  80.6349353  69.3354902  89.0427836
  80.8443858  69.8007455  87.6177738   2.6435624  70.9828684   9.5300636
   3.1669399  70.3395818   9.0520571   2.3890960  71.6247918   8.8671812
  29.6316945   9.0699773  18.4232401  29.4886177   8.8911530  19.3526393
  30.1232931   9.8911923  18.4102521  47.5482207  42.8060669  75.2981048
  47.9478523  43.2840423  76.0247863  46.6837968  43.2043000  75.1960585
  15.2566435  42.3673117   7.6878624  15.9950174  42.9690158   7.7826678
  15.1148559  42.0214436   8.5690567  23.1697792  33.6594153  22.3310332
  23.7244462  33.8616657  23.0844727  22.5397614  33.0194589  22.6623416
  29.1555619  41.4966157  78.8888539  29.8016262  40.8292912  78.6575299
  29.6627530  42.3048228  78.9649477  50.6312759  46.3094707  63.8091579
  51.3950132  46.7552748  63.4428304  50.1412941  47.0006547  64.2545951
  26.4990711  60.7832925  69.9412042  26.9946326  60.7899445  69.1222986
  25.8942308  60.0471343  69.8491645  25.1814435   2.2731153  24.1956735
  24.8334730   1.6085506  23.6011130  24.4463913   2.8671564  24.3474804
  27.4693762  46.0285755  32.8532867  27.1256175  45.8486028  33.7283134
  26.6925580  46.0774183  32.2961514  22.0300892  59.6949778  65.4521829
  22.9133542  59.9052230  65.1490794  21.8236800  60.3832963  66.0845156
  82.9688811  28.9514375  16.4333131  83.3823165  29.1529966  15.5938628
  83.1889212  28.0339210  16.5944891  40.6924677  26.3915851   2.8454671
  41.5562821  26.0764048   3.1113955  40.1400744  26.2543630   3.6150538
  37.7587453  54.7262837  20.0256619  37.6153273  53.7898004  20.1622710
  38.2305480  54.7775790  19.1943961  54.4999914   1.9599478  15.1394334
  53.7189579   1.4082161  15.1819840  54.3781834   2.6018583  15.8389658
  84.5036931  24.0498408  51.5298579  84.1107729  24.8909542  51.7630400
  85.2002936  23.9240576  52.1741857   5.6239951  40.5930505  48.9253856
   4.9862805  41.1860052  49.3228230   6.0249604  40.1403316  49.6673454
  70.4032600  58.0326585  27.4023022  70.5397590  58.5903764  28.1681681
  69.7550588  58.5017219  26.8769009  51.9609410   7.9487397  68.1206721
  51.6111978   8.3449003  67.3225692  51.8424157   8.6197399  68.7929387
   0.8774157   0.4360617   1.1044359   1.2866666   1.2355826   0.7735102
   1.4274277   0.1732414   1.8424360  34.7067439  31.7816442  73.6242166
  34.0831927  31.9223365  74.3366923  35.3426396  31.1617232  73.9813811
  77.1076082  58.3687279  70.5338573  76.8877376  57.4615572  70.7458245
  77.4763662  58.7213113  71.3437550  49.7507829  33.1001278  39.5628449
  49.6676836  33.3316057  38.6377805  49.1332858  33.6782725  40.0108158
  53.4395374  63.4262618  37.4811459  54.2244944  62.8901858  37.3684653
  52.7608541  62.9634299  36.9898136  44.0828412  43.2884651  42.6197634
  43.3802383  43.4855790  42.0003063  43.6438039  42.8489154  43.3479627
  65.6298543  33.3754391  56.0064378  66.1590657  34.0805252  56.3792926
  65.6032804  32.7077888  56.6918346  54.1623414  71.3651351  62.5618266
  54.5709983  71.0291622  61.7641089  54.7871311  71.1576480  63.2566782
  29.0774327  13.3031324  82.2620608  29.7269120  13.9057651  82.6243346
  28.8384485  12.7384192  82.9970556  83.5654359  28.0152714   8.5735261
  82.7987014  27.5091250   8.3048889  83.4539854  28.8641918   8.1455720
  10.0505775  11.3575052   6.5134270  10.2773878  12.2597832   6.7385565
  10.8701614  10.9758361   6.1990343  49.0694253  41.1920954  53.0601457
  49.4651926  41.2129601  52.1888450  48.8119860  42.0986093  53.2280426
  38.5757882  20.1182950  82.9981811  38.3303845  19.3143785  83.4561408
  38.1216115  20.8134000  83.4744001  14.4923951  70.9968151  62.8972675
  14.7200481  70.2686809  62.3191442  15.1290286  70.9447000  63.6101586
  67.5148401   8.1954002   7.2921163  67.9661849   7.9691968   6.4788809
  66.9670138   7.4337426   7.4818420  45.7353129  62.6061600  73.0650974
  45.4335209  62.6289954  72.1570049  45.3856774  61.7858798  73.4131307
  16.3624725  60.9865032  81.1650236  17.0227379  61.5537815  80.7669323
  16.7498935  60.7154940  81.9973041  76.0501609  61.4171675  42.9028804
  75.4530772  61.8931032  42.3256387  75.5644205  60.6318450  43.1549850
  27.7713423  61.2962099  87.2207556  27.7905654  62.2532151  87.2189176
  27.5068712  61.0636713  88.1108189  50.3849066  12.7967092  17.9025307
  49.6178722  13.2026372  18.3064027  50.1595035  12.7291355  16.9747058
  72.7000786  44.9384855  16.6899159  73.3390941  45.1686027  17.3644061
  72.1528865  44.2671357  17.0974722  41.5873186  69.2494312  23.0863265
  42.1951471  68.5265213  22.9308350  41.2316339  69.0798726  23.9586625
  61.5879614   4.0414174  21.3269252  61.4221234   4.8944018  21.7283566
  60.7259285   3.6282617  21.2775942  80.4490093  26.4283647  86.9339601
  79.7682109  27.1009242  86.9541835  80.0285506  25.6508338  87.3012364
  12.4441437  28.6348180  64.3194821  11.5573830  28.8472489  64.0283458
  12.4775927  27.6782824  64.3071224  38.7093502  68.7829016   6.7186896
  39.2334870  69.1959477   7.4049150  38.0293322  68.3038693   7.1923303
  21.3484351  10.8410505  26.8173313  21.1093762  11.5135788  26.1795316
  20.7351148  10.9685246  27.5410856  84.4188938  14.2052750  88.6554253
  83.6658366  14.2176966  88.0646779  84.7605212  15.0989773  88.6268121
  74.8798741  37.7828260  82.4623096  73.9295687  37.8637668  82.5435509
  75.0195297  36.8814862  82.1719397  63.8754749   0.2121092  13.2750362
  63.5166338  -0.6752516  13.2825017  63.2868780   0.7036757  12.7021943
  50.7001216  51.7131093   8.6071603  51.2660420  51.3996067   9.3126262
  50.2191080  50.9359745   8.3226973  28.0558865   5.2985984   3.4919653
  27.9021243   6.2269639   3.3166753  28.9765855   5.2528123   3.7497421
  56.0389899  68.8784852  78.4194194  56.1839593  67.9583991  78.1988354
  55.2291773  68.8777162  78.9297475  43.5958298  36.3512925  87.6586525
  43.6219614  35.3966235  87.5941842  44.2215151  36.5617579  88.3518004
  86.3902658  37.5808844  76.5057772  87.0194632  37.0150675  76.9532074
  85.5482092  37.1404218  76.6205169   5.6750390  18.1202684  67.6871320
   5.5434951  18.9567605  67.2408038   5.1538640  17.4953076  67.1831156
  86.2373752  24.5874935  40.2383439  86.3284796  24.7386991  41.1791248
  86.6662467  25.3406489  39.8320708  52.5955516  61.9883723  66.0188944
  52.9746055  61.3212849  66.5912092  53.1304386  61.9555335  65.2257680
  32.1397234  71.2519425   9.0973064  32.6685495  72.0461934   9.0215410
  32.3516990  70.7472506   8.3120776  39.1594502  65.1271218  50.2134758
  38.7896157  64.7407924  49.4196219  38.8956557  64.5316556  50.9149487
  79.2060929  11.3775515  80.0734511  78.9714627  10.6589841  80.6606829
  78.4468093  11.4748946  79.4987820   1.8873654  48.8248759  74.8111926
   2.3694995  49.6423716  74.9356083   1.0823714  48.9424323  75.3155705
  30.3434876  61.7907720  54.4556246  29.5070019  61.4212328  54.7384042
  30.8093384  61.9799527  55.2701340   5.6087507  25.8554983  66.2717454
   5.3312853  26.3728336  65.5156971   6.1727155  26.4455505  66.7717594
  80.8041783  46.6421755  76.0342133  81.1022335  47.3368518  76.6214270
  81.5083847  45.9941229  76.0530035  58.9026981  34.8319912  46.1599870
  59.7425983  34.9394165  46.6063716  58.7825008  35.6489854  45.6759364
   3.2705179   7.4437389  38.2603335   3.4823641   6.7136039  38.8419313
   4.0307516   7.5189086  37.6835961  24.1115278  29.6833741  86.2113107
  23.2116969  29.8883617  86.4653113  24.3955004  30.4425017  85.7020792
  63.1712283  11.8868564   4.2101400  63.1626445  11.3023351   4.9680931
  62.9561327  12.7477273   4.5691205  38.0518266  49.3000238  80.5574433
  38.3086252  50.2192284  80.6305815  37.1749160  49.3260577  80.1745832
  54.8656802  42.7620099  78.7555003  54.9533717  42.2693404  79.5714775
  54.2420141  42.2551528  78.2355306  71.4547095   9.4443826  77.5645659
  71.3568089  10.3094985  77.9623369  71.0788449   8.8417786  78.2063027
  72.4072113  19.8662509  65.9757526  72.1232530  20.3025771  66.7790078
  71.6804793  19.9913586  65.3654734  15.4655680  38.9036709  29.5974894
  16.0062991  39.5206047  30.0906774  15.5530018  38.0766057  30.0713568
  38.9220672  46.6485945  49.8251754  39.0817957  47.2648160  49.1103400
  38.5041639  45.8970833  49.4046761  51.0658362  55.7468788   8.5459732
  51.1226662  55.5504103   9.4810681  50.4710801  55.0827957   8.1974182
  64.2012005  24.7023456  46.1731605  64.8305803  24.9469644  46.8515960
  64.7396640  24.3644432  45.4575413  44.0611356  10.9520162  13.8114198
  44.0177452  11.8273016  13.4264204  43.9173867  10.3586835  13.0741787
   4.5741871  15.7415651  19.4813624   3.8317889  15.6090045  20.0708575
   5.0115999  14.8906606  19.4519770  62.3101224  14.7936047  39.7176510
  62.7691919  14.2401755  40.3494762  61.4080185  14.4737840  39.7301064
  29.3665768  32.2768767  70.8564101  29.9698275  31.5649521  71.0696793
  28.4985238  31.8755560  70.8971229  77.8217598  35.1081767  37.9839410
  78.1128682  35.0695993  38.8949841  78.3013703  34.4030573  37.5491857
  11.2526912  62.8874260  15.1820645  11.6116665  63.4534824  15.8654009
  11.9567894  62.2681937  14.9896351  32.9868865   0.5291641  21.8480617
  33.1860672  -0.4059027  21.8950601  33.8161019   0.9612690  22.0528033
  22.2906782   8.5450527  25.8502183  23.0993355   8.3205230  26.3105351
  21.9758392   9.3345914  26.2903739  62.5001010  47.1475923  81.7014742
  62.1254696  46.2922169  81.4911979  63.4400115  47.0397234  81.5559943
   9.1562690  56.4846799  11.2589539   8.8707204  57.3595572  10.9957360
   9.3130068  56.5570512  12.2004567  78.4399632  25.5824628  83.9878538
  78.0211704  25.7550556  84.8310953  79.2168615  25.0680781  84.2071005
  43.9542534  55.0256436  19.7771427  43.9891842  54.1291482  20.1107708
  43.6907741  55.5520102  20.5319597  81.3734936  35.2991390  68.2815843
  82.1512872  35.8570305  68.2764767  81.5235528  34.6725098  67.5737356
  11.9217141  17.3715021  26.1514944  11.8010404  17.5366348  27.0865884
  11.0358832  17.2323320  25.8165809  32.3306116  35.5261080  79.6386208
  31.4480930  35.5016481  80.0084782  32.8659621  35.0375170  80.2638492
  71.5917165  60.2017145   0.5183593  71.0595388  60.6649422   1.1652278
  70.9942972  59.5624246   0.1302478  36.3874475  30.1464499  11.1036716
  35.5314548  30.1109918  11.5305803  36.5953498  31.0798258  11.0610348
  13.7657677  11.0723928  74.4844430  13.5004990  11.9554298  74.7415617
  13.2291849  10.8751140  73.7167245  66.6639665  29.3888631  40.5507576
  67.3063881  29.9392702  40.1028979  66.4240686  28.7257003  39.9035358
  25.3929862  58.4283965  22.0822824  25.6671185  57.5427626  22.3204753
  24.4572566  58.3479121  21.8974466  73.3899612  28.3491249  24.8475659
  73.3431254  27.8715319  25.6757827  73.2163503  29.2597398  25.0860438
  46.8654154  34.2257955  87.1809792  47.1734261  35.0157731  86.7367983
  46.7946288  33.5720676  86.4853781  54.2528128  42.9143194  26.0927973
  54.2663429  43.8700499  26.0415343  55.1558062  42.6520533  25.9137686
  73.6093137  53.9418882  37.8639618  73.1038976  53.9115306  37.0516411
  74.4346869  54.3590598  37.6170635  80.8999718  47.0425564  25.2510063
  80.9541714  47.1576655  26.1997129  80.8753160  46.0938926  25.1258628
   2.0106018  13.1466212  51.9382781   1.6726358  12.4547774  51.3696279
   1.2789236  13.3592069  52.5176623  24.9377972  64.2997755  25.5616264
  25.2171071  63.4032164  25.7470978  25.5601503  64.8481851  26.0392826
  42.9486295  27.2992309   6.2831014  42.9055401  27.1943114   7.2335576
  43.8105613  26.9588693   6.0433944  85.4131209  59.8020573  57.7588157
  86.0769241  59.1847355  58.0662421  85.7662865  60.6636382  57.9805911
  36.4430984  17.9706113  80.9241866  36.8986561  18.6879761  80.4836339
  37.1233913  17.5336579  81.4365391  83.5521390  13.7544666  51.0453578
  83.1079000  13.2505628  50.3634747  84.4748620  13.5157700  50.9568255
  12.8701731  33.6391968  18.1825567  12.2874135  34.2968145  18.5622434
  13.6407494  33.6456015  18.7503621  86.4692863  43.7100125  46.9884984
  87.1966889  43.3555175  47.4998208  86.2177955  44.5089677  47.4518070
  86.1449679  53.5391084  22.7287987  86.8139390  53.2181242  23.3335125
  85.5583316  52.7933144  22.6027787  49.8455333  37.1410169  38.7559644
  49.7736060  37.2370218  39.7056177  48.9519495  37.2615175  38.4346868
  68.5418117  61.0714828  33.8889229  67.7509135  60.7551713  33.4522777
  68.9289259  60.2883238  34.2801214  42.6599446  16.4047579  68.1412586
  43.0179077  17.2096143  67.7666915  43.0028009  16.3832124  69.0346886
  18.6510742  43.8664571  88.5977727  18.4633760  44.7076616  89.0141573
  18.2578307  43.9367412  87.7279156  12.6012024  33.1823830  12.0180880
  12.0272135  32.9403387  12.7448501  12.8965079  34.0677163  12.2307178
  29.1468593   6.2174207  81.9776705  29.1031321   5.7495343  82.8115782
  30.0225589   6.6037260  81.9654128  33.8591240  34.7222122  82.0716908
  34.6697769  34.6367474  82.5734572  33.4213666  35.4838873  82.4517582
  47.5930659   1.9151724  38.9865068  47.9352974   1.0218743  38.9529212
  46.6897700   1.8144673  39.2867515  15.1267309  50.5332021  37.4268109
  15.9867479  50.5942313  37.0110248  15.3147776  50.2758541  38.3293863
  34.2766575  63.7204510   5.8643959  33.7731875  63.0804098   5.3613085
  35.1898776  63.4696351   5.7252835  34.6316044  59.7871728  39.3600137
  35.5762547  59.6407581  39.4093130  34.5115151  60.3116370  38.5683397
   7.8689135  64.2510443   9.0449825   8.2298903  63.5669660   8.4810992
   8.4063493  65.0214566   8.8609731  15.1856166  50.8631334  77.1885854
  15.4197404  51.3079517  78.0031739  15.9283370  50.2868340  77.0083708
  44.9274961  56.4080004  80.6389603  45.3063629  57.2073852  81.0045773
  44.5316184  56.6865255  79.8131659  15.8467875  32.2811824  66.1082627
  15.5098686  32.4696172  66.9841679  16.7985176  32.2968137  66.2092437
  68.8433460   5.0203678  80.9395962  69.2085752   4.2406405  80.5214277
  69.5906170   5.4312961  81.3742867  84.5793255  68.6239266  28.6806634
  85.4027378  68.1647567  28.5151732  83.9114251  67.9393335  28.6422792
  50.5293311  40.9675456  14.9039721  49.6764151  40.7418604  14.5327144
  50.8365320  41.7003618  14.3702682  47.6338377  36.9940428  37.4315516
  47.1371334  36.1773462  37.3813191  47.1286788  37.6143216  36.9059085
   2.3229039   8.8973957  82.8217431   1.7324887   9.1166139  83.5425656
   1.7412367   8.6657213  82.0977112  46.3377901  41.3851879  33.7718703
  45.8233206  41.3250723  34.5768170  47.2407757  41.4891235  34.0719475
  11.4113248   3.0774571  56.8259518  12.0853637   2.6258907  57.3338800
  10.9940831   3.6679301  57.4532339  16.1717454  22.7598113  80.6426133
  16.8013380  22.0548324  80.7937753  16.7116123  23.5231995  80.4376401
  56.8518222   1.9779065  42.4545944  57.2179276   2.7305180  41.9900788
  56.6308970   2.3163058  43.3222982  11.9823886  16.2916594  21.0108968
  11.4014759  16.7863636  20.4329348  11.4131827  15.6422531  21.4238229
  84.0796669  16.3120176  70.2613297  83.7334721  15.7169141  69.5963238
  85.0125564  16.1027379  70.3077086  25.5030584  12.2522003  51.4165624
  24.7836779  12.4279003  52.0230712  25.8200548  13.1191789  51.1633957
  63.2851759  50.2874253  76.1427476  63.2764402  50.5458872  77.0643511
  63.1353738  51.1026184  75.6639455  21.4588017  15.0179751  68.7065769
  21.3280552  15.3854249  69.5807152  21.9884302  15.6709564  68.2490390
  19.6506106   4.7056228  79.1787870  19.2865322   4.5811344  78.3023274
  19.8224458   5.6455646  79.2354779  48.4475933  43.7786244  54.0622384
  48.9862584  44.3366223  54.6232287  47.7000314  43.5388588  54.6098655
  34.2648955  55.9541345   2.9682248  35.0287021  56.1040562   3.5253198
  34.2106887  55.0019053   2.8872740  78.2057066  33.1749341  72.2806424
  78.5170096  33.9121488  71.7554408  78.9795812  32.8783948  72.7596146
  60.9412380   3.2995555  72.3517890  61.1306992   3.9441177  71.6699709
  61.6204008   2.6332517  72.2468657   4.7342430   4.9035604  71.9855677
   4.6157876   4.0208698  72.3363631   4.1425916   5.4487778  72.5041412
  13.5509213  68.8612871  53.0220840  13.9902830  69.0760025  53.8449390
  14.1421458  68.2460286  52.5883301  12.2676708  41.1564090   3.7611712
  12.8038586  41.3496654   4.5301878  12.6080828  41.7363309   3.0799649
  81.3721148  60.3365410  43.7366987  80.4154737  60.3205543  43.7081660
  81.6203296  60.9904420  43.0832198  47.7156112  70.3317738  26.4753588
  48.4566836  70.9328020  26.5515740  47.6243304  70.1822059  25.5343333
  40.0081889  71.1241117  26.6143084  39.4177102  71.3622218  25.8995565
  40.1593355  71.9446076  27.0835344   4.7871600   1.1469819   0.4825804
   4.0138722   1.6491496   0.7396514   4.6107049   0.2592528   0.7940809
   5.7185362  10.4398582  84.9377492   4.8931190  10.5388804  84.4632886
   6.2998673  11.0913932  84.5455910  65.5221667  62.8261227   2.7766323
  64.6363664  63.1806462   2.6998031  66.0519163  63.3784790   2.2017412
  79.9010667  31.8890579  62.3195203  80.5287870  31.7104688  63.0197381
  80.2666971  32.6428775  61.8565925  15.9963205  26.5472588  20.9828410
  15.3491669  26.8513142  20.3464650  16.0799996  27.2709194  21.6037637
  55.2215073  29.5398718  28.0703512  55.7798334  29.7075587  27.3111511
  55.8210173  29.2124971  28.7409073  21.6924328  31.1000580  20.2520043
  21.0300009  31.1513553  20.9410503  21.4479384  31.7880300  19.6330142
  80.1332422  26.6288834  52.1152594  80.0344392  27.2642143  51.4061582
  79.4256807  26.8384364  52.7249118  11.9868286  27.2232866  87.6710055
  12.0346709  26.3481948  87.2860934  12.8788730  27.4035683  87.9676317
  77.2326045  59.8399439  76.7155115  76.4101685  60.2876108  76.5169541
  77.9067773  60.5053807  76.5779733  56.5241314  59.9849929  70.6879410
  56.8050606  60.2229240  69.8043691  55.9583989  60.7068722  70.9619282
  49.1697367  12.7259515  83.8896490  49.3868173  12.8369531  84.8152766
  48.5977249  11.9587678  83.8681183  15.4426369  47.1489170  81.2273827
  15.8414694  48.0186904  81.2017183  15.0937014  47.0715352  82.1153512
  15.3424900  54.1290884  56.1838577  16.0577976  54.0289014  55.5557419
  15.2659928  53.2698934  56.5987841   7.0815925  61.8426723  77.8150047
   6.9954265  61.6227407  78.7426023   7.9607056  61.5463403  77.5792519
  79.4947249  37.8440314  43.3002003  79.9883539  37.7222790  44.1112112
  78.7014770  37.3223507  43.4220158  73.9191023  52.5080127  73.4750131
  74.3245874  52.5186066  72.6080059  74.0058774  53.4073713  73.7910132
  21.5246625  58.1680122  17.6323248  21.2259788  57.2893389  17.3979038
  22.4389656  58.0494748  17.8896777  67.9485949  59.5734530  70.0380063
  67.8294618  60.4519058  70.3990601  67.2267636  59.4693927  69.4180362
  69.2085379  40.6798992  32.2914163  68.2957527  40.5161386  32.0542720
  69.6951331  39.9670853  31.8774679  15.8428096   8.6021097  26.1590304
  15.5545740   9.5147380  26.1428535  15.6620249   8.2781624  25.2766434
  59.8498292  52.6121773  19.7043778  60.7939913  52.4590411  19.7409709
  59.4614500  51.7494916  19.8498660   4.7507483  53.0198450  17.6607301
   4.9730886  52.0994038  17.5207848   4.0595735  53.1988945  17.0231953
  15.0294346  21.1685731  85.6034049  15.6413105  21.6749112  86.1376908
  15.4339196  21.1419917  84.7362733  75.6235204  27.5158458  70.5112076
  75.0508516  28.2826858  70.5266595  76.1563293  27.5988385  71.3020671
  77.8816765  21.5680228  70.4336729  78.1324601  20.8539947  69.8475813
  77.1500465  21.2159972  70.9406516  62.6958969  63.5755115  27.4035252
  62.4607160  63.9034299  28.2715064  63.5623698  63.1861599  27.5212614
  29.7409210  59.2875135  43.1910251  29.4233303  58.7851294  42.4407064
  29.0649720  59.1734117  43.8590862  22.9999387  68.2121096  46.9693534
  23.7676547  67.9146034  47.4575480  22.5467263  68.8018763  47.5718528
  27.2567276  53.3450712  39.8466589  27.6536626  52.4771224  39.9197303
  26.7399461  53.3051264  39.0419396  67.7879300  11.0964430  80.6594137
  68.4022255  11.6918362  81.0888085  68.2774442  10.7414789  79.9173839
  12.7983819  60.6533289  15.0899339  12.1603973  60.0400019  14.7251910
  13.2977240  60.1332731  15.7195619  30.9181196   5.4129434  15.5925186
  30.8858436   5.0855230  16.4913990  30.3395202   6.1754726  15.5944455
  43.8801065  41.9223053  79.0220502  43.8756407  42.8663516  78.8639731
  43.3517445  41.8092592  79.8121678  48.3893040  34.7277484   7.4178033
  49.0468888  34.7918001   8.1104154  47.7502455  34.0982137   7.7517526
   1.6536396   1.9092783  17.0054933   2.5514551   1.7530450  16.7126617
   1.6229537   1.5434539  17.8894971  14.6201554   3.3629004  88.7394359
  14.7110018   3.8607656  89.5519069  13.7094209   3.0682913  88.7396229
  53.6103810  68.3569009  79.8220831  52.7650748  68.7134617  79.5490379
  53.9511587  68.9988290  80.4450041   5.6694318  23.3580903  86.1818774
   5.1748227  23.3696755  87.0013037   5.2637664  22.6604738  85.6670972
  29.8962822   4.7819762  20.8242157  29.0078959   5.1328142  20.8867796
  30.3338829   5.3497184  20.1898607  50.9740803  57.9516475  82.2040738
  51.1231947  58.8207213  82.5765082  50.1099130  58.0107010  81.7966927
  71.7238593  10.3804134  69.8691037  71.2280230  10.5764931  70.6640446
  71.8220025  11.2268914  69.4331281  46.3090727  41.2664599  89.1356428
  46.4895580  40.4347649  89.5737527  45.9641560  41.0158256  88.2786441
  77.2555714  24.7092560  81.3139020  78.1627506  24.6507304  81.0141815
  77.2488888  24.2427275  82.1496880  79.0480660  54.3230880  59.3872632
  79.1045582  55.2734408  59.2879152  79.7249804  53.9805928  58.8035546
  26.8418874  36.6313013   9.9023847  26.9513418  35.6884691   9.7786151
  27.3386277  37.0262029   9.1857721  12.6103778  35.8417476   6.7123900
  13.4854541  36.1176226   6.9850918  12.0168913  36.4221546   7.1889750
  68.3666060  56.6297559  65.8298807  68.9216373  57.2651560  66.2820299
  68.4165939  55.8410083  66.3698902  20.3296894  64.2473730  31.0237901
  19.4034705  64.2568876  30.7824192  20.7168532  64.9604929  30.5160541
  42.0008365  35.0898444  72.4963946  42.8663307  34.9204784  72.1242834
  41.5515355  34.2458326  72.4516234   9.1575569  26.8098685  74.6986711
   9.8331500  27.4819782  74.6088138   9.6450278  25.9932516  74.8070260
   9.0233586  48.3482192  11.6299880   8.7626045  47.8363602  12.3956509
   8.5976063  49.1966821  11.7527784  85.6973326  32.0782598  11.1718223
  84.7835093  32.3206425  11.3215201  85.7335291  31.8411840  10.2451526
  60.0790510  52.3266952  53.4593614  59.8259364  52.7481074  54.2806875
  59.3134521  52.4257966  52.8934382  71.3419080  63.0670556   5.7214063
  70.8988884  63.3574080   6.5186899  72.2278665  63.4214299   5.7970920
  53.3507372  18.9790755  81.4149000  53.5892618  18.6759264  80.5388644
  53.7150023  18.3186713  82.0043142  15.0537335   5.4475766  21.3141317
  14.5004897   6.0756598  20.8497346  14.6467207   4.5981244  21.1438275
  35.6929934  52.8827696   6.4568880  36.0818926  52.9906195   7.3248498
  36.1604958  52.1395920   6.0756266   7.6951464  19.6845640  10.5859187
   7.9680420  20.0183842   9.7313288   7.7775173  18.7340069  10.5091850
  24.8541985  51.2295885  25.5002254  25.3174727  51.9935569  25.8436799
  25.0530605  50.5294283  26.1218856  72.9378019  14.8911244  70.1038102
  73.4487512  15.4876737  69.5567347  72.2516671  15.4411677  70.4818356
  53.6237508  49.4013125  76.4746005  52.8074246  49.5622191  76.0013643
  53.6179648  48.4601573  76.6490287  85.5000304  47.2306781  63.7087797
  85.4821145  47.7472573  62.9031390  85.7197609  46.3447871  63.4204267
  78.6339762  38.2383879  72.1626139  77.6897057  38.1399316  72.0405832
  78.7554846  39.1691385  72.3501530  78.0829089  35.1729028  66.9022757
  77.1475666  35.3762830  66.9040813  78.3695224  35.3558383  67.7970490
  62.0706689  41.0660057  75.0483088  62.3517251  41.9397221  75.3200790
  62.3045750  40.4996340  75.7836609  27.2214265  50.3170156  40.4789434
  26.9790720  49.8739337  41.2920699  28.1683304  50.1939506  40.4121615
  81.4707622   2.1862297  64.2382403  81.5742582   1.3034262  64.5934563
  81.4415392   2.7527322  65.0092479  20.9790084  29.1448282  75.5995707
  20.5636780  29.9934282  75.4459139  20.7756364  28.6333320  74.8164722
  23.7999856  25.0203905  75.3891076  23.8797615  24.4492773  74.6251067
  24.5815181  25.5721965  75.3583019  43.6064444  18.9967388  23.1624298
  43.7687924  19.7935476  22.6574837  43.1133203  18.4322337  22.5671194
  30.2391967  17.2314237  13.1014041  31.0327513  17.6184776  13.4711231
  29.7819313  17.9665848  12.6931413   1.8072005   5.1714707  66.2192466
   1.0509144   5.4174832  66.7519203   2.3196194   5.9765069  66.1445776
  39.3825983  66.7504803  61.5729944  38.5094117  66.3666949  61.4924598
  39.2414022  67.5694175  62.0480074  81.5735565   1.3154304  53.0976578
  82.3668035   1.7779381  52.8273288  80.9092643   1.5894776  52.4653242
  77.8766162  28.4776777  65.1585362  78.3614071  27.6825064  65.3796973
  77.8765830  28.9907280  65.9666272  17.8910291  34.0883586  26.3261649
  18.0632081  33.2451827  26.7452599  17.6502088  34.6696308  27.0475247
  81.6415847  56.2526956  28.3843121  81.4819885  57.1957646  28.3471386
  82.3595286  56.1068104  27.7682715  71.7940496  23.0494965  28.3852565
  72.4219193  23.7695209  28.3254543  71.0688760  23.3165363  27.8204160
  79.5995155  40.5559863  58.9177026  79.5705884  41.3690700  58.4134309
  79.6698198  39.8668360  58.2571263   6.0907684  29.3236907  16.3501475
   5.2343333  28.9058826  16.4406301   5.8913072  30.2433851  16.1751920
  23.5529752  41.8666193  61.2843419  24.0612883  41.2566121  60.7497945
  23.8845490  41.7397797  62.1732752   2.6778109  67.7337309  75.5972781
   2.0513298  67.1475148  75.1728914   2.9352742  67.2719915  76.3952387
  37.2260332  64.5859682  15.2657978  37.3592324  63.6406295  15.3352568
  36.9172739  64.7191325  14.3696021  58.8409543  40.7052983  71.8570964
  59.5134021  40.0886778  71.5675710  58.9515257  40.7517853  72.8067514
  44.7166038  42.8196118   8.6657680  44.3459958  42.0259781   8.2797276
  45.4478223  42.5076869   9.1989230  50.4211670  63.5974906  68.0241329
  51.0409922  64.0360495  68.6069832  50.5758450  62.6639979  68.1686941
  25.5241120   2.3037791  11.3111465  26.4139351   2.6311126  11.1796187
  25.1684227   2.8514897  12.0109536  69.4806209   1.3849921  49.9626201
  69.4994419   0.6315394  50.5526935  68.7280875   1.2245630  49.3932453
  65.4169566  52.1821788  17.7652735  64.9211253  51.4477572  17.4033232
  64.9304832  52.9588970  17.4890773  19.5353215  55.7037952  51.5656441
  19.5742168  55.6890581  50.6093482  18.9962399  56.4674501  51.7716878
  71.5905977  50.2465216  21.3664421  72.3498136  50.1117029  21.9335814
  71.3776432  51.1742109  21.4678062  30.9484417  42.0738507  42.7123961
  31.0567967  41.3599770  42.0840051  31.6420408  42.6952244  42.4909309
  74.3676806  49.2782212  76.7471239  74.4838966  48.4812552  77.2643963
  74.6674111  49.9825919  77.3218024  43.7542922  48.6825443  65.4044835
  42.8756235  48.3146500  65.4984358  44.0868010  48.3037459  64.5907381
   4.3090004  13.4075594  47.9296826   4.7641362  12.8653306  48.5739427
   4.9068299  13.4450791  47.1830742  46.8722716   0.8303390  18.2503691
  46.4876977   1.3967904  17.5814389  47.6249314   0.4264585  17.8183789
  13.6426597  56.6408089  46.1957142  14.4801745  56.1979448  46.3323604
  13.7798429  57.5237951  46.5388584  84.1411091  63.8335204  24.2225548
  83.8000913  64.7269141  24.2648208  83.6179563  63.4093891  23.5423668
   9.5706897  27.2237902  84.9606901   8.7155860  27.5668676  84.7012149
   9.9289452  26.8423101  84.1592178  37.5417818  46.7820424  12.8513553
  38.2587633  47.2283390  12.4008127  37.3772263  46.0003414  12.3240064
  64.0594063  51.1954951  78.4877193  64.9250981  51.5529473  78.6852987
  63.4631533  51.9357430  78.6006231  46.4019621  33.1196833  75.9258626
  45.6035187  32.7504149  75.5485551  47.0589439  33.0246165  75.2362474
  57.2204524  15.5396613  86.3570503  58.1679162  15.4835091  86.2329897
  57.0602453  15.0882920  87.1858031   5.5943509  34.7402674  84.5280216
   6.4930493  34.5443660  84.7929664   5.2829978  33.9317835  84.1210268
  70.7428935  60.8330260  16.5508995  71.5169687  60.6960533  17.0970477
  70.8427099  60.2079511  15.8328815  60.7159705  47.3976527  57.9228989
  61.2620811  48.1505619  58.1490025  60.5036794  47.5248161  56.9982401
   4.2970812  45.5088476  15.1429611   4.3214220  46.0278498  14.3390481
   3.5261363  45.8288879  15.6114159  66.3632021  57.4039143  39.4891838
  67.2714382  57.6230726  39.6972915  65.8577303  58.1530698  39.8046138
  79.4467949  63.2837082  18.7968180  79.6283837  63.1060310  17.8739484
  79.7139681  64.1942310  18.9225098  68.0382914   4.5528254  39.3192997
  68.2982822   4.9092026  40.1687889  68.3185872   5.2138767  38.6863091
   0.6684788  50.7920638  32.8566905   0.3336627  50.9768502  31.9792032
   1.5182249  50.3778122  32.7064934  70.6475426  16.1895069  47.8567214
  70.5579900  17.1334592  47.9877417  70.5040870  16.0632078  46.9187977
  80.2909541  49.8057794   7.3709052  80.1879683  50.2325192   8.2215043
  79.9642392  48.9165595   7.5079355  59.2891384   2.9952828  64.2176007
  58.5227050   2.4504587  64.3964257  59.9774738   2.6302721  64.7736523
  53.0692261  62.3156520  84.3069205  52.3133657  62.2573355  83.7225353
  53.2937220  63.2461093  84.3160105  70.9830031  41.0016745  78.9819279
  70.5200503  41.8284784  79.1172121  70.7569347  40.7440409  78.0881999
  41.8518085  67.6088945   8.7922477  42.4305492  67.9794514   9.4585649
  42.0641108  68.0932617   7.9944081   9.4736125  45.7567356  34.1845617
  10.1499857  46.3496631  33.8571659   9.9171898  45.2320915  34.8510596
  75.6062821  53.7054686  53.9361936  76.5364764  53.4999584  53.8427274
  75.3189506  53.9237188  53.0496050  75.5627733  46.3012538  64.1979959
  75.5165301  45.4373200  63.7884695  75.4117644  46.9153256  63.4794251
  24.9416375  70.2975751  30.8395548  24.0870928  69.9845401  30.5429165
  24.8298070  70.4453360  31.7786461  85.8979390  21.5869664  71.2120452
  86.1630345  22.5066827  71.2032049  86.0478550  21.2858682  70.3158884
   3.2981368  13.6032937  62.3101808   3.8733678  13.0867007  61.7458468
   2.5015256  13.0779435  62.3853445  58.4053507   1.8929261  80.8248101
  58.0710054   1.1266870  80.3586312  59.3278995   1.9419590  80.5743479
  59.1652964  39.5315763   2.5671375  59.9671261  39.0133153   2.6357415
  58.5162347  39.0358207   3.0663140  81.3162507  16.5767587  46.0790936
  81.4998461  15.9809556  46.8054153  80.3697793  16.7148343  46.1159546
   0.7181268   7.7785189  24.8202587   1.5221127   7.4683655  24.4035533
   0.2641149   6.9798221  25.0889379  46.8113199  18.7269771  23.2358830
  46.3132312  19.5312229  23.0898412  46.3046794  18.0473956  22.7912302
  56.9492362  63.5279884  38.4737655  56.7512633  63.1387559  39.3255499
  56.4077790  63.0380495  37.8548828  30.3727422  66.0387512  67.7700444
  31.0974853  66.6578859  67.6825712  29.6288306  66.5773633  68.0397189
  12.9340481  33.5827313  68.2848646  13.8911799  33.5721592  68.2892018
  12.6842978  32.6586936  68.2881836  30.3089205  66.3355784  22.6228689
  30.4782155  65.7131093  21.9156891  29.5320391  65.9916684  23.0637919
  67.6101414  19.3070158  46.8546098  68.3799210  18.9870885  47.3250540
  67.6630991  20.2598793  46.9286262  43.4610376  35.5455675  66.3151211
  42.5182503  35.6338813  66.1751762  43.5578649  35.4896921  67.2657705
  77.9022865  41.6174323  68.4390255  77.5734675  40.9359274  67.8527995
  78.8395493  41.6639351  68.2503251  60.5867808  70.0828304  13.6496087
  61.5191267  69.9118952  13.5164019  60.2322897  70.1793134  12.7657202
  40.8836372   7.3836539   9.4775390  41.5043246   7.8550917   8.9219084
  41.4305649   6.8107823  10.0150518  75.8257889  17.4202458   8.0034506
  75.0610012  17.1618181   7.4891094  75.5170342  18.1486181   8.5423162
  72.3267353  14.6696095  73.9822432  72.2082488  13.7505636  73.7423531
  71.4440012  14.9803851  74.1833174  36.5247877  51.4367451  55.7335107
  36.0087632  52.0499567  56.2568865  35.9095442  50.7398480  55.5053840
  62.1106593  56.3190961  87.8968894  62.0421010  56.7153682  87.0282697
  63.0515083  56.2797064  88.0685970  51.5638163  17.6521788  71.4759519
  51.9191607  17.8238987  70.6039000  51.8522503  16.7628612  71.6812614
  40.9205141  22.4666073  45.9459868  41.5214711  23.1303703  45.6076066
  41.4118358  21.6471301  45.8886113  24.0247989  51.4778731  29.6331577
  23.4705691  51.6559849  28.8733304  24.8676862  51.8745140  29.4130469
  24.7846858  65.8973628  13.2452958  25.3026487  66.7008798  13.1972679
  23.9141003  66.1893910  13.5155407  40.1991784  21.7788840  86.7018042
  39.7277782  22.4799330  86.2517552  40.5532437  22.1946210  87.4879546
  80.9462966  33.3950702  58.9912778  80.6798285  32.4939796  59.1736577
  80.9649843  33.8177528  59.8498942   2.6413129  23.4728243  22.1345072
   2.4154602  24.0974952  22.8237160   2.8080626  24.0160024  21.3641931
  57.8487324  50.0188549  22.9224891  57.0193437  49.8787677  23.3793499
  58.3803163  49.2566359  23.1519942  69.4493069  36.9311255  88.2222814
  68.5171837  37.1213586  88.3280621  69.8812316  37.7772792  88.3393147
  69.3409382   5.8569118  36.8652619  69.6927602   5.0173749  36.5692368
  70.0610334   6.4753222  36.7417170  61.6966281  32.5515535   4.3380912
  61.8332127  33.1865229   3.6349622  61.4339072  31.7486451   3.8880383
  47.2847804   3.9105733  47.1865966  46.9464680   4.1615595  46.3270721
  48.2278304   4.0632248  47.1267129  26.1339705  56.1413057  19.6900217
  27.0886511  56.1997132  19.6525324  25.9537229  55.2034158  19.7540929
  70.4532410  69.6101663  78.3865544  70.9645268  69.7306008  79.1867507
  71.0229286  69.0973441  77.8132297  82.0356647   5.5695700  21.4500717
  81.6196698   6.0672776  22.1539661  82.8012343   6.0907875  21.2082719
  22.3242097   7.7980298   5.6731586  22.7990741   8.3057432   5.0151594
  22.6498921   8.1274520   6.5108004  66.8290542  -0.0175593  12.9430170
  65.8966242  -0.1482608  13.1154213  66.8768086   0.8409072  12.5223193
   8.2350272  68.6562928  60.9719330   8.7702248  68.8247062  60.1964123
   7.6170731  67.9800853  60.6942495   8.9433261  51.5645150  79.5437213
   8.6209221  50.6632564  79.5482325   9.4363920  51.6384207  78.7266192
  76.7461823  62.0592350  24.1055187  77.1837988  61.3393261  24.5598917
  75.8439763  61.7592917  23.9946575  64.4723796  52.3249018  29.1615732
  63.9891822  51.4987270  29.1752611  65.3622399  52.0862559  29.4212432
   2.7776610  18.1724335  19.0917313   3.4800246  17.5221329  19.0866011
   2.0584707  17.7445448  19.5563909  19.4556776  11.5685818  10.2502863
  18.6946474  11.0098744  10.0924544  20.0611414  11.0149191  10.7433411
  12.0243868  30.4614623  72.4094347  12.8127351  30.9275614  72.6878060
  11.6027909  31.0542492  71.7872672   6.9174727  49.9325645  13.9262838
   6.2094669  50.0864668  14.5518026   7.6476971  49.6233462  14.4623699
  82.9866891  14.5090912   5.1906707  82.1928972  14.4526506   5.7225925
  82.7062925  14.2479223   4.3135160  13.6738786  22.0232430   1.8187685
  14.3683637  21.9487729   2.4732734  13.1712879  21.2136926   1.9096674
   0.2213596  -0.0498940  -0.0900781  -0.8268202  -0.2342782   0.4108540
  -0.7288120  -0.2909552  -1.0164459   0.6317718   0.7284559  -0.3948398
   0.4559192   0.0489781   0.1994501  -0.4112919  -0.8791407   0.6284518
   0.0287757  -0.2209721  -0.2263626  -0.5718811   0.1834918  -0.0972693
   0.5720517   0.3560399   0.4358208  -0.0613926  -0.1258357  -0.0962828
   0.2300974  -0.4649287   0.0135205  -1.4691487   0.2381489  -0.2787761
   0.3006204   0.0952343  -0.2044123  -0.5242623  -0.2805239   0.1587876
   0.5140529   0.7395812  -0.1150696   0.5533536   0.3663849  -0.0026766
  -0.9565047   0.0081492  -0.7737383  -0.1833921  -0.2386891  -0.1661096
   0.3223271  -0.0190880   0.2500709   0.7777607  -0.1215417  -0.1015814
  -0.6830738   0.9093954   0.4933675   0.1708632   0.3487142   0.1338935
  -0.1906298   0.8955181  -0.1275567   0.1394702  -0.1391404   0.0358091
  -0.4799755  -0.7725032  -0.4315790  -1.0674036  -0.7865901  -0.4351845
   0.2197540   0.0487405   0.1250846   0.3844487   0.1346813   0.0067965
   0.4217429  -0.6761700   0.1062773   0.0492176  -0.0673640   0.1097215
   0.1430973   0.3123822   0.0113353   0.1590373   0.2021207  -0.0055447
  -1.1491544  -0.2679246   0.1067441   0.2111550  -0.0277224  -0.3968236
   0.0783670  -0.0981650  -0.0535095   0.0765430   0.2241791  -0.0962722
   0.1542096  -0.3653575  -0.3289489   0.4711328  -0.4636362   0.1478878
   0.0956145  -0.0922331  -0.1495544   0.0848217   0.0558082  -0.1638480
   0.2466338   0.2642225  -0.4145786   0.8084601  -1.1244252  -0.0175296
   0.2208267   0.0254880   0.3245446   0.1020590  -0.3218192  -0.2097504
  -0.0125980  -0.5351478   0.2024291  -0.0499908   0.6244678  -0.4700668
   0.0938448  -0.0845702   0.2680456  -0.6952086   0.7978698  -0.1708670
  -0.0776088  -0.1488142  -1.1136934   0.0531122   0.1445212  -0.2292048
   0.2618610   0.4808462  -0.4811340  -0.0045471   0.0416403   0.0282419
  -0.2601329   1.2635242   0.1906886  -0.1816519   0.4147377   0.1949714
   0.1541875  -0.0763353  -0.4019945   0.0372039  -0.0596123  -0.1069390
   0.1027618  -0.4443457   0.4670563   0.2673393  -0.1549401  -0.0065097
  -0.0101715  -0.1070674  -0.3950555   0.1764479   0.0472876  -0.1136052
   0.6530317  -0.3991540   0.6129065  -1.2787673   0.6165963   0.5145048
   0.0304985  -0.0790132   0.0348536  -0.2764803   0.7655458   0.0144514
   0.4061311  -0.6324556   0.6899372   0.0052973  -0.2389162   0.0151831
  -0.8389819  -0.3630519  -1.1953717  -1.4429729  -0.0687388   0.5510999
   0.0314806  -0.1261813  -0.0102252   0.2692908   1.4821071   0.7870184
   0.1022785   0.0013080  -0.2656078   0.0410631  -0.0349585   0.3071304
   0.2789082  -0.2072962  -0.3464316  -0.1945192   0.0111533  -0.1163089
   0.2689687   0.0593958  -0.1631619  -0.1243376  -0.4743914  -0.6251980
   0.6680935   0.0107011  -0.3661621  -0.3214406   0.5062853  -0.1831619
   0.1860611  -0.1400500   0.4742740   0.2007164  -0.1141712   0.0720523
   0.5544500   1.0762957  -0.4800377   0.3242400   0.2346612  -0.1433438
  -0.2097725  -0.2652964   0.5077813   0.4033796  -0.2338024  -1.1663435
   0.0420531  -0.0651386  -0.0617515  -0.2581790  -0.1145541   0.1358337
   0.0932849  -0.1356586   0.1568886   0.9776267  -0.3322524  -0.3726040
   0.4123977  -0.3893027   0.1814993   0.5598659   0.4767058   0.0765226
  -0.1653201  -0.2369468  -0.4019883  -0.7896364   0.1804609   0.6674336
  -0.1589069  -0.0768873  -0.0500374  -0.7101653   1.1854203   0.6383370
  -0.7026880   0.5947527  -0.2106328  -0.6896406  -0.2010204   0.7809190
  -0.2108181  -0.1426183   0.3423305  -0.5034742  -0.4701057   0.7028344
   0.5748677  -0.0644342   0.4791460  -0.0241860  -0.1711208  -0.1174178
   0.3834755  -0.0571286  -0.1095351   0.2387775  -0.2314679   0.9375386
  -0.0305164  -0.0447234  -0.0386586  -0.5685293   0.3503568  -0.3846182
   0.1078554   0.1974612   0.3512013  -0.0232654   0.2161941  -0.0054431
   0.7261773   0.1026404  -0.6008350   0.0925830  -0.0807397   0.0508535
   1.4657945  -0.0576952  -1.1070707   0.0050774  -0.0365430   0.3503778
  -0.1257190   0.2462649  -0.2509218   0.5936521   0.4900978  -0.2825899
   0.1175262  -0.1422746   0.1140156  -0.6173587  -0.6729854   0.6014266
   1.0073715  -0.9506150  -0.2028943   0.0288169  -0.2565835  -0.2710619
   0.3229422  -0.6883366  -0.7575672  -0.3100992   0.0596504  -1.3163325
   0.2051820  -0.0965359   0.0396733   0.5219627  -0.4846141  -1.0269371
   0.1435640   0.3309846   0.2460507  -0.2551154  -0.0921359   0.1681142
  -0.2216868   1.6681495  -0.2388122   0.1580090  -0.6715414   0.9587010
   0.1670828   0.1921019  -0.1183205  -0.0128431   0.2119519  -0.0738888
  -0.4975114   0.0422331   0.9818036   0.2498082   0.2654072   0.0436070
   0.1582708  -0.0919148  -0.2347649  -0.4466093  -0.0276608   0.1406011
   0.7973907  -0.5301244   0.2946550  -0.0825828   0.1258263  -0.2738130
   0.0770774  -0.3819973  -0.3478452  -0.2068752   0.5906784   0.0143077
   0.1317697   0.0851264   0.0014129  -0.0193668  -0.0060475   0.2997322
   0.3211974   0.1189378  -0.1875818   0.7395547  -0.4927986  -0.5749363
  -0.0430011  -0.1109886   0.0094150   1.4472686  -0.0521421  -0.5443598
   0.2737200   0.1072717   0.1845733   0.5974592   0.5021110   0.3119115
  -0.4105216   0.7004884   0.5842415   0.9370008   0.1565984   0.1675047
  -0.1248842  -0.1194425   0.1495037   0.2757606  -0.0542764  -0.1422587
  -0.0623204   0.0868825  -0.1659321   0.6473742   0.0510180  -0.0520283
   0.1913843   0.2209384  -0.1237618  -0.3021909  -1.6439900   0.0208287
   0.2412223  -0.2005843  -0.1492728   0.4207160  -0.3648714  -0.9969001
   0.3267161   0.2105130  -0.3542277   0.4507805   0.1090687   0.4804386
   0.2573581   0.3463952  -0.4903061  -0.0904458   0.3424565   0.5751167
  -0.0941203  -0.0216553  -0.5413963   0.0482513   0.2394162   0.3492321
  -0.2165322   0.0314369   0.1727285   0.1648221   0.0935786  -0.3012030
   0.2131200  -0.0142554   0.4108238  -0.1238412  -1.1625673  -0.4697510
   0.0565017  -0.0038226   0.0526184  -0.6711891  -0.1523703  -0.0598377
   0.0318260   0.2662556  -0.0995140   0.3409248   0.4695412   0.1996331
   0.4206740   0.4824875  -0.4082574   0.5223965   1.4761136  -0.0671087
  -0.3089163   0.1906798   0.4173654   0.8345610  -0.2041764  -0.1225476
   0.1992884   0.2960332  -0.1660210  -0.7018138  -0.0328175  -0.9302099
  -0.0236262   0.1295570   0.3197367  -0.3039727   0.4578617  -0.2172154
  -0.0876731  -0.0051810   0.1139541  -0.7344957   0.4437066  -0.0488743
  -0.2458838   0.1792292  -0.3445479   0.9805998   0.0060039   0.2411294
  -0.0674900  -0.3176801  -0.3970722   0.2687193  -0.2253561   0.4534063
  -0.1368247   0.3849830   0.2953220   1.0236462  -0.5965666   0.1747018
  -0.4206545  -0.0793776   0.1898228   0.0240204   1.3404608   0.1193464
   0.0976020   0.3747350  -0.1256846  -0.6749861  -0.5750142  -0.3193967
   0.4764182   0.3736321  -0.5046845   0.7837371   0.0894307  -0.9082004
   0.1203887  -0.2799374  -0.4124655  -0.1151165   0.2681372  -0.0423072
  -0.1100525  -0.1388218  -0.2170473  -0.9972479   0.3087419  -1.2186757
   0.2798129   0.1195679   0.2224201   0.4886162  -0.4213033  -0.4118304
   0.1775925   0.3348070  -0.1122458   0.0087279   0.9106152  -0.3210457
  -0.6891097   0.3822812  -0.2923982  -0.1460048  -0.4055658  -0.1096682
   0.4645628  -0.7502492   1.0724505  -0.0618495   0.1803751  -0.1884756
  -0.1494906  -0.3126448   0.0427614  -0.2073968   0.1997921  -0.1444923
  -0.1494357   0.0572892  -0.1742140  -0.1131314  -0.1768892   0.2051579
  -0.3583995  -0.2850078   0.0518725  -0.1137664  -0.1538245   0.1590398
  -0.3530777  -0.1712881   0.4793916  -0.3292361  -0.3335435   0.0657966
   0.9322341  -1.1911790  -0.6785210   0.2632160  -0.1458310   0.3233006
  -0.3678713   0.2420729   1.0119379  -1.7516418  -0.4003959   1.7190062
  -0.1468470   0.2036212   0.1038926  -0.7516430   0.4059463   0.0276123
  -0.7028490  -0.2672151   0.1260098   0.4436043  -0.3032234   0.1206272
   1.6050396   1.1806194   0.0487045   0.6552547   0.3996616  -0.4419334
  -0.4369593  -0.1295599   0.0061525  -0.4935878  -0.5868794  -0.4343009
  -0.1571463  -0.1516697   0.2495525  -0.0424305   0.2269264   0.1687734
   1.3288289  -1.9111065  -0.0506385  -0.1830964   0.1481021  -0.1953982
   0.0998476   0.2490475   0.1812539   0.2849549  -0.0206201  -0.1121610
   1.0359350   0.8692312  -0.6467366   0.1495724  -0.5409353  -0.1988800
   0.2445069   0.0565357  -0.3825719  -0.0507414  -0.0256563  -0.0002127
   0.9888655  -0.2407233   0.3786307   0.1973826   0.0903627   0.0168190
  -0.2648654  -0.1609002   0.4189246   0.2248611   0.0355388   0.0051040
  -0.0561061   1.5129545   0.7845919  -1.4690125  -0.2705592  -0.8562274
   0.0897099   0.2455452   0.2400410   0.2539548  -0.2552472   0.5061070
   0.1268856   0.3618031   0.1379866   0.4431348   0.0194542  -0.0458899
  -0.2127538  -0.3474058  -0.3242071   0.4774234   0.0684995  -0.0506726
   1.9328499   0.8515760  -0.6897157   0.1357999   0.4148490   0.2468317
   0.3002924   1.0343244   0.3618173   0.0538196  -0.1160822  -0.3178502
   0.8969793  -0.0974965  -0.4662544  -0.1542902  -0.2163515   0.1203689
  -0.3726457   0.3155262   0.2635118  -0.2654528  -0.3741686  -0.9727111
  -1.1439059  -1.1461360   0.0038615  -0.0969635   0.0110350  -0.3247684
   0.1221283  -0.5441758  -0.7902710  -0.0177151  -0.0365203   0.3368130
  -0.1658375  -0.1097721  -0.1814731  -0.0095176   0.2653161  -0.0834887
  -1.0320479  -0.3413914   0.2678250   0.1568310  -0.1736624  -0.2242758
   0.3081081  -0.3441938   0.3067633  -0.3769758   0.2545808  -0.3715441
  -0.9241320   0.0409426  -0.8769593  -1.4253879   1.1481799   0.0380926
   0.1413754  -0.1782241   0.3072137   0.5810574   0.2747503  -0.7757973
   0.4611083  -0.2403084   1.1310022  -0.2388828   0.2199897  -0.0115868
   0.4700519  -0.1483792   0.0694812  -0.1923425  -0.2412830   0.2125896
  -0.0641811   0.0398146  -0.1329712  -0.1673302  -0.0237741   0.2638771
  -0.0568291   0.2418450   0.0345665  -0.9121327   0.1356826  -0.0988876
   0.2507540   0.3474276  -0.0429734   0.3171033   0.2573471  -0.5058749
  -0.2400676  -0.1800022  -0.2016341  -0.2473660  -0.3407286  -0.4021259
   0.2625189   0.0429032  -0.6886848  -0.2049241  -0.2032360   0.4081360
  -0.2784514  -0.6403245  -0.1036865  -0.4074109   0.6948555   0.2106127
   0.1206166  -0.3335175   0.3234097  -0.0334960  -0.0227958  -0.0887855
  -0.0370388   0.1004305  -0.0364440  -0.0529121  -0.3169794   0.1827646
   0.0842960   0.1513187   0.1030282   0.0629195   0.1538062   0.0474525
   0.2330149  -0.7308612  -0.3216505  -0.1736779   0.2106235   0.2020376
  -0.5121796  -0.4011252  -0.2274952   0.0391822  -0.2295971   0.1178878
   0.5921299   1.0820959   0.9363947  -0.5348974  -1.0602134   0.4965726
  -0.2954090   0.0738395   0.4493029  -0.6710152   0.1580621   1.0517608
  -1.0161012   0.5498373   0.0437324  -0.0898333   0.4031210  -0.3416326
  -0.0163937   0.0945128  -0.1731759   0.1459994   0.0593098   0.2316807
   0.0186647   0.0571393  -0.3986907   0.0620473   0.0949750  -0.1652573
   0.2381485   0.1636828   0.1028287   0.3189048   0.1809210   0.0524231
  -0.3520884   0.1407855  -0.0748866  -0.5101648  -0.6500481   0.3560037
   0.0694439   0.0472225   0.2651177   0.3645335   0.6209670  -0.3056707
  -0.2125899  -0.3449489  -0.0954754  -2.0806127  -0.2044116  -0.1982082
   0.0417854  -0.4932925  -0.1736330  -0.2862018  -0.6882276  -0.5001889
   0.0389863  -0.2583395   0.1561364   0.2076700   0.1776562  -0.1692778
  -0.6507577  -0.4587366   0.0682433   0.0211392   0.1531992  -0.0284920
  -0.0615090   0.0491300   0.2480656  -0.1728652  -0.8646879   0.2688194
  -0.0135367   0.1586360  -0.0096172  -0.1689639   0.1925016  -0.3956059
   0.0531453   0.0456299   0.0037159  -0.1772379  -0.1017455   0.1274501
  -0.8893349  -0.5454181  -0.4961430  -0.3366866   0.2226614   0.4879400
  -0.4853976   0.0724887   0.4962321  -0.0282089  -0.0825072   0.0434620
   1.5497413   1.1781319  -0.4056638  -0.9257730   0.3930975   0.4448184
   0.2399148  -0.1472016  -0.1441462   0.7489128  -0.3231390  -0.7799782
  -0.0261742   0.0981184   0.2903426  -0.6679287  -0.5221138   0.4509431
   0.0674154   0.1233529  -0.5752921   1.0937353  -0.2365712  -0.1754434
   0.1261350   0.3573042   0.3644904   0.0424030  -0.9794198  -0.0768800
   0.9852217  -0.9887382  -0.7146231   1.9463956  -0.5080474  -0.1504756
   0.1490718   0.2000207  -0.3132423   0.3017788  -0.0331873  -0.0731688
   0.1724004  -0.0352520  -0.0286789  -1.3132891  -0.5475328   0.3255446
  -0.2251524   0.1569970  -0.0370405  -1.1274393   0.7760601   0.4342919
   0.2025721  -0.3057022   0.1646553  -0.0308690   0.5793680   1.5474702
  -1.0107865  -0.0487542  -0.9500603   0.0199996  -0.0846544  -0.1748202
  -0.1382795  -0.6980001   0.1869186   0.0328456  -0.6717616  -0.2895265
   0.1767915  -0.1416300   0.1655467   0.3973809  -0.0301596   0.2549300
   0.2684424   0.0988417  -0.0554003   0.5789045  -0.6822517  -0.2302592
   0.5457437  -0.1339740   0.6599711  -0.0325896  -0.0170330  -0.0802023
  -0.1383229  -0.0232604  -0.1198093  -0.1182941  -0.1572117   0.1110985
   0.5440978   0.1371442   0.1940778  -0.2100976  -0.3396957   0.0238181
  -0.9492564   2.1989892   1.4059637  -0.4702177   0.0645289   0.3630279
  -0.8625300   0.5484741   0.9304245  -0.2211296   0.9944221   0.4754001
  -0.1711511   0.0222109   0.3258158  -0.7963693   0.2747468  -1.3888769
  -0.7217609  -0.3580771   0.3740913   0.3410711  -0.1102162  -0.0937631
  -0.0357866   0.3160190  -0.1186485   1.0676527   0.1024848  -0.2080977
  -0.0882957   0.0572331   0.0662912  -0.4028191   0.6257947   1.5159252
  -0.4756960   0.9324057   1.2105854  -0.1905374   0.1868516  -0.1639357
  -0.1330760   0.6270532   0.7637147  -0.4592990  -0.5539902  -0.5832358
  -1.0839692  -0.0359646   0.2984805  -0.1588303   0.4536604   0.1143383
   0.0549452   0.1499408  -0.2819699  -0.1021182   0.1354198   0.0413975
  -0.6406759  -0.5703244  -0.2132379   0.2031538   0.0173430  -0.0936542
   0.2077390   0.4675707  -0.7458358  -0.0288394   0.1551129  -0.2024392
  -0.1043974  -0.3463559   0.0775235   0.3476249  -0.0257039  -0.0310809
  -0.6181521   0.8833585  -0.5429392   0.0913048  -0.6818882  -0.2414539
   1.0588781  -1.4531952  -0.5061994  -0.0308920   0.1164124   0.1521955
  -0.3445782  -0.3108608  -0.0076405  -0.2986648   0.1429465  -0.5076542
   0.0721900  -0.1985065   0.1898055  -0.2052499  -0.2477494  -0.1916585
  -0.7958262  -0.1522787   0.9868102   0.4728268   0.0496671   0.1138887
   0.4153257  -0.3645458   0.5068512  -0.4350851  -0.1280676  -0.6507070
   0.8697992  -0.1933079  -1.3637965   0.3087093  -0.5100903  -0.3443584
   0.3042401  -0.1530937   0.2606133   0.2383541  -0.2059466   0.2493853
   0.5984256   0.2590476   0.0354870  -0.1850739   0.1020174   0.1056977
  -0.3581689   0.1976966   1.1847302  -1.6181758  -1.8525226  -0.8318919
  -0.1273454   0.0142446   0.0436522   0.4157060  -0.3137662   0.4214921
   0.0121755   0.7629892   0.6303929   0.1143369   0.1071272  -0.4209825
  -0.5205776   0.7145196  -0.7783805   0.5135695  -0.2102436   0.2534534
   0.0710293   0.0563898  -0.4632652   0.6320129   0.0010134   0.1360193
   0.1337378   0.1018920   0.1252655  -0.0743177   0.0814262   0.1500334
  -0.7921070  -0.2889603  -0.8894473  -0.2122580  -0.1840762  -0.2346520
   0.0345430  -0.2305645   0.0382017  -0.0179775  -0.1009311   0.0820408
  -0.2108909  -0.8776540  -0.1503771  -0.6407200   0.1872650  -0.3351285
  -0.0124964   0.0046246   0.1707521   0.1813893   0.2370359   0.6249110
   0.9374191  -1.0075985  -0.3351085  -0.1146834   0.1308658  -0.2779792
  -0.0427086  -0.2704155  -0.1363142  -0.0305399  -0.3661243  -0.2007700
  -0.1197542  -0.1359285  -0.4249873   0.4975008   0.0830860   0.1211312
  -0.1948794  -0.1497368   0.0494515   0.0423735  -0.2978444  -0.1218467
   0.0220849   0.2193568  -0.0833366   1.0951712   0.4655705  -0.2540693
   0.0891143  -0.1101340  -0.1163159  -0.5580607  -0.1912757   0.2381004
   0.0357301   0.0221200   0.0091790  -0.1579599   0.2921276  -0.2748061
  -0.2728151   1.0372869   0.5483485  -0.1384286  -0.1336399   0.2785321
  -0.6089092   0.1413737  -0.0604062   0.2184872  -0.2041513  -0.2619467
   0.1620540  -0.6815612   0.9314619  -0.2621296   0.1195687  -0.4847417
   0.1533948  -0.3061012   0.3896155   0.3280541   0.0231675   0.1258654
   0.2372415   0.0277932  -0.1041395   0.3197961  -0.0570701   0.2614568
   0.9008156  -0.2811580  -0.4697771   0.2551400   0.2935221   0.1645979
   0.0353043  -0.2784909   0.1984479  -0.0111628  -0.0336364   0.0986659
   0.4212297  -0.0702044  -0.8594657   0.2386781  -0.0748171  -0.3836969
   0.4303158  -0.1724203   0.2046522  -0.2782272  -0.0590000  -0.2664901
  -0.4184999   0.3466063   0.1030505  -0.1691306  -0.5534200   0.3766182
   0.1694745  -0.0755187   0.0236520  -0.3546454   1.5916720   1.3262641
   0.0441614  -0.2246780  -0.2911691   0.6214399   1.5183067  -0.7544796
   0.6371362   0.2079392   0.3449814  -0.1164099  -0.3783011   0.0935780
   0.0049490  -0.2427207   0.0355907   0.9790592  -0.7307624   0.2810529
  -0.8292672   0.3338090  -0.1849418  -0.1165594  -0.3764710   0.0061213
  -0.0655014   0.2333842  -0.2615072   0.0863002  -0.0437294   0.1049101
  -0.1412533   0.0775513   0.1998720  -0.9595036  -0.2680928   1.4682762
  -0.1063471  -0.0409279   0.0737713   0.8115806  -0.3199539   0.2143557
  -0.0810636   0.0921361  -0.2663822   0.9686898  -0.1551641   0.3131476
  -0.1820682  -0.0002781  -0.3507048   0.0722816   0.2400153  -0.1002175
  -0.9097819   0.8476215  -0.1685099   0.0608271   0.1724890  -0.0028188
  -0.1351244   0.0532997   0.2563549   0.0427706  -0.1156947   0.2033983
  -0.1433816  -0.2253833   0.0680792  -0.0048419   0.0264903  -0.0086363
   0.0018457  -0.0443860   0.0622947  -0.1873447  -0.4112170  -0.0001803
  -0.3751403  -0.4516487  -0.0417734   0.2072079   0.5663846   0.0098146
  -0.7766491   0.6699634  -0.5522252  -0.2969421  -0.5845296   0.0713173
   0.3005112  -0.2596831   1.1488045  -0.4350867  -0.8069302  -0.2226239
   0.0705348  -0.1158449  -0.1583654  -0.4221445   0.0841103  -0.1951564
  -0.2864422  -0.3190867  -0.5672896   0.1800961   0.2553965   0.1004906
  -0.1016839   0.3671647  -0.0243577  -0.3674831  -0.3398729  -1.1890415
  -0.0055964  -0.2060964  -0.3400043  -0.5411258   0.0900244   0.6471371
  -0.0465703  -0.5084743   1.2686182   0.0394514   0.1165804   0.1075342
   0.0696010   0.1547633   0.1299523  -0.7644607   0.1417186   0.7620444
   0.4741728   0.0774632   1.4898042  -0.0084866  -0.3168214   0.1657134
   0.2102166   0.0362827   0.1015141   0.0605702   0.4528232   0.4620461
  -1.4644073  -0.3073377   0.4225862  -0.4205322  -0.1434413   0.4015817
  -0.0324862  -1.2624396  -0.4817561   0.0318878   0.0027637   0.2970408
  -0.7123131   0.4093083   2.1408484   0.0924013   0.2351800  -0.2869696
  -0.1129635   0.7687997   0.4225201   0.9268478  -0.7288833  -0.6238287
   1.5578936  -0.4070133  -0.5752896  -0.1684578  -0.1138093   0.0785146
  -0.1239514  -0.4626896  -0.8466614   0.6346850  -0.7179388   0.6142959
  -0.0523049   0.1481828   0.0426848   0.7897241  -0.3070268   0.1954071
   0.0221623   0.0556250  -0.4298303   0.0688050  -0.0115436   0.1855000
  -0.4481393  -0.3681895   0.2956200   0.4966108   0.0502554   0.1417679
   0.1258976  -0.3412325  -0.0816964   0.4541316  -0.0907864  -0.7132434
  -0.2910955   0.3640847   0.0171735  -0.0290435   0.4061854   0.1756115
  -0.0287843  -0.1492416  -0.0972632  -0.6940973  -0.3776867  -0.1129798
   0.0008288  -0.3074131   0.0966154  -0.2943273  -0.7386650  -0.1598070
   0.4197319   0.5526312  -0.5952745   0.1982054  -0.2581610   1.5250831
  -0.1931382   0.0686443   0.0117959  -0.4722675  -0.3150235   0.3238694
   0.5646506  -0.1486181   1.6565654   0.0660900  -0.0143190  -0.3241911
  -0.1333392   0.5924286  -0.1261815   0.5817599  -1.1083697   1.2645533
  -0.2080185   0.1891143   0.2178003  -0.2617027   0.0792362   0.1106809
   0.0998122   0.0148272   0.1707670   0.1307912   0.1487866  -0.0799571
   0.1477112   0.1565417   0.1683750  -0.0289601   0.1722171   0.0544748
   0.1001880   0.0547459  -0.4066662  -0.3461979   0.1804473   0.1441601
  -0.7942372  -1.4324768  -0.1744013  -0.4402092   0.2590060   0.6076449
  -0.0887745   0.0806698   0.0693879  -0.4040973   0.1466329  -0.0719197
  -0.5664199   0.0175270   1.3741619   0.0392616  -0.2508839   0.1480562
   0.0307214   0.1353319  -0.1658374   0.2314694  -0.2435084   0.0052637
   0.4851012  -0.0965225   0.2537877   0.1517745   0.0381385   0.1934681
  -0.2208356   0.4639252   0.1404854  -0.5891020  -0.1356013  -1.4217703
  -0.4334130  -0.1325658  -0.1346806   0.9595619  -0.4074334  -0.2222033
   0.4374037  -0.0546720   0.0628608   0.2271353  -0.4523016  -0.1569396
   0.5360138   0.3889766  -0.5624761   0.1043082   0.0923893   0.3175638
  -0.1189330   1.0754531   0.5567206   0.7363117  -0.3597279  -1.1710702
   0.0058186  -0.3787100   0.0066432  -0.3834867   0.0132035   0.1991203
  -0.1080100  -0.0100082   0.0735323   0.5746044   0.1179150   0.0425677
  -0.0529635   0.3190386   0.4733377  -0.4290048  -0.0604139   0.1623150
   1.0231717   1.1431114  -0.1135837  -0.2522914   0.0085791  -0.0723024
  -0.4337877   0.8672761   0.9649293   0.0449541   0.0398926  -0.1474130
   0.6231292   0.7495107  -0.7717275   0.5901319   0.6932799  -0.2882732
  -0.2171897  -0.3829776   0.0290029  -0.1532226  -0.1579102   0.3696686
  -0.2450786   0.0015817  -0.0932792   0.7313168  -1.0151930   0.0184046
  -0.1904817   0.5911366   0.2568639   0.0335473  -0.2426834   0.2580292
  -0.0850764  -0.1181121   0.6161219  -0.5079778  -0.1156485  -0.1878702
  -0.3764022   0.3542289  -0.8109010   0.1436608  -0.2602682   0.2231597
   0.0972919  -1.0857287   0.5723018   0.0720305  -0.3508229   0.1332804
  -0.0496609   0.8736974  -0.6796832   0.2090490  -0.6446211   1.9765865
   0.2283184  -0.0820642   0.3294959   0.1478637  -0.2353436   0.0073491
  -0.0051807   0.0088453   2.0935316  -0.1748673  -0.2551769   0.1814759
   0.3840871  -0.7876107   0.5980769   0.1152666   0.3516182   0.1809674
   0.4056823   0.4737800  -0.2084893  -0.0449297  -0.5310963   0.1459350
  -0.2691105  -0.6046275  -0.0792296   0.2334568   0.1835061   0.1548674
  -0.0974430  -0.3085345   0.1121933   0.1042750   0.2267823  -0.1142494
   0.4681377   0.8047536  -1.2942706   0.1660833  -0.0655888  -0.2825816
   0.3614589  -0.4882988   0.7000551  -0.0011492   0.2978142   0.0652630
  -1.0503076  -0.7308654   0.1192245   0.1653141  -0.0139072  -0.3952626
  -0.0649824   0.5831137   0.8954663   0.2053493   1.4727372  -1.1026275
  -0.0356838  -0.4289024   0.2918435  -0.2457791  -0.0161605   0.1436641
  -0.6941452  -0.2425119  -0.1700110   0.3899928  -0.1859041  -0.3252246
  -0.3326606   0.0645551  -0.0787971   0.1474591  -0.0585846  -0.1808149
   0.8418154   0.7117843   0.2214279  -0.0489371   0.0285266   0.4319137
  -0.0696251   0.7073441  -0.6896340  -0.1683661  -0.2089338   0.2080868
  -0.0647437   0.1432833  -0.2276246  -0.0570830  -0.5452203   0.0513565
  -0.2382942   0.2814597   0.0922146  -0.1143344   0.2329662  -0.1099416
   0.2178347   0.0898320  -0.6455948   0.1161987  -0.4338676  -0.1865400
  -0.2205085  -0.8443768   0.2806782  -0.1757700  -0.3364669  -1.0789495
   0.1250114  -0.0943397   0.1845143  -0.5367852  -0.5363371   1.0987646
   0.1654263  -0.0994930  -0.0014772   0.0166905  -0.0693703   0.0233497
   0.3357597   0.6268966  -1.2235581   0.3002785  -0.2347714  -1.4279217
  -0.1285866  -0.3097119  -0.0525078  -0.1534880  -0.0182998   0.0452834
  -0.0649064  -0.0909578  -0.1570213   0.1227905  -0.3425554  -0.0994563
   0.3452150   0.2213155  -0.2477700  -0.9869486   0.5558659  -0.2902292
  -0.4313470   0.3246990  -0.4996168   0.1893477   0.4597692  -0.0794909
   1.9518524  -0.3686516   0.5231347   0.1300484   0.5975238  -0.5305174
  -0.2047442   0.0641059   0.0410179  -0.1236719  -0.9600389   0.1214353
  -0.8732262  -0.1064956   0.7442603  -0.3531207  -0.0117955  -0.0758052
   0.1756500  -0.4856574   0.9895627  -0.1273216   0.1838917  -0.4023033
  -0.3708314   0.0589490   0.0458321  -0.0488574  -0.1383726   0.3050669
  -0.3379194  -0.3401133  -0.0567772  -0.1990364   0.2484797  -0.4958698
   2.0255402  -0.2452388  -1.4556361   0.4419455   0.0560752   0.0640121
  -0.6751874  -0.1251436   0.0869160   0.5176960   0.2808044  -0.1233116
  -0.0276961   0.2228235   0.0466131   0.9556061   0.3424995   0.2026916
   0.4328961   0.0677735   0.4892479  -0.1688494   0.5643615  -0.4225375
  -0.1799296  -0.0032463   0.0165836  -0.3044844   0.2618506  -0.1210837
   0.0680934   0.2377442   0.1122249   0.1734411  -0.0049807  -0.0301450
  -0.0135997   0.4060042  -0.1712338   0.1126076   1.1745787  -0.4394269
   0.6186230   0.2228951  -0.2712707  -0.5579686  -0.1251450  -0.4350336
   0.2819600   0.0806533  -0.0579305  -0.2622714  -0.8447478   0.7112521
   0.2521630  -0.6427777  -0.3651037   0.0324609  -0.2640784   0.0468141
  -0.4154870  -0.0312260   0.0008301   0.0195327   0.2293127  -0.0990441
  -0.3536301  -0.1639487  -0.4407349  -0.0212991  -0.2278697   0.1188130
  -0.1023988   0.2102241  -0.0655041   0.0704633   0.6229384   0.9602195
   0.3574046  -0.0869393  -0.1531123   0.4252434   0.3191182  -0.4349188
   0.2050689   0.0889970   0.1386371   0.1113690  -0.8776883   0.3463182
   0.1227257  -0.1750694  -0.0524632   0.6040751  -1.2510072  -0.0947333
   0.4022890  -1.1556644  -0.2642020   0.0808089  -0.1994983  -0.0899542
  -0.0453125   0.0525325  -0.2698259   0.0264813   0.4368994  -0.3497829
   0.3966702  -0.0336597   0.4692676   2.3890245   0.8177353   1.0115515
   0.0280374   0.0627115  -0.1980912   0.1280174  -0.0826551  -0.0546070
  -0.0895628   0.3703004  -0.2053230   0.7321625  -1.0731009  -0.3466314
   0.2311639   0.0886259   0.0089143   0.4011435   0.0580137  -0.0578034
  -0.0633445   0.2893971  -0.1009903  -1.4096815   0.0652171   1.0913926
  -0.0560249  -0.0616656   0.2353531  -0.1087117  -0.0928274   0.0190611
   1.2545330  -0.5790084  -0.4587128  -0.2043149   0.4681698  -1.4066291
  -0.3362025   0.1624317   0.1643662  -0.2126135  -0.7030487   0.0988328
   0.1195224  -0.4714811   0.5910758   0.3046045   0.5163128   0.4741634
   0.0223999  -0.0769615   0.1787719   0.1365405   0.1424359  -0.0144738
  -0.0359623  -0.3354545   0.0164662  -0.4295754   0.0635716   0.3188770
   0.0391367   0.0584606  -0.0480124   0.0123576  -1.0207733   0.5091421
  -0.3340284   0.0817900  -0.1756373  -0.6128922  -0.1052915  -0.2753291
   0.0464578  -0.5018749   0.1909774  -0.0084521   0.0540623  -0.1300562
   0.3451603  -0.5003522   0.3458494   0.0027764   0.1597828  -0.0735990
   0.3637391   0.1544287  -0.0360743  -0.0230919   0.1572616   0.0676025
   0.1170019  -0.0277239   0.0642581   0.4960822  -0.5386716   1.2737082
   0.9945747  -0.0338900   0.4845395  -0.0282839  -0.0946923   0.1794126
   0.1615508   0.0148882   0.1954648  -0.1970097  -0.1453405   0.3430317
   1.0807091   0.9393567   0.0398861   0.0863887  -0.1625276  -0.1748558
   0.4107604   0.1272692  -0.4995101   0.3578790  -0.1045004   0.3115360
  -0.3615524  -0.0200720   0.2319575   0.9421480   0.5493819  -0.3858750
   0.1577187   0.1293357  -0.2299000   0.1694729  -0.3560294  -0.9095717
  -0.3833206   1.2606078   0.7698600   0.0898713   0.0147516  -0.3281353
  -0.1236455  -0.0305517   0.2159960   1.6265062  -0.7913814  -0.7193715
   0.6439957   0.6555191   0.0516424   0.5509763  -0.8539871   0.8526329
   0.1630317   0.2434351  -0.1937605  -0.3930641   0.0256334  -0.2320685
  -0.1138466   0.0315543  -0.1060146   1.0837081   0.7534097  -0.8386703
  -0.1448325   0.2193214  -0.0136191  -0.4971562  -0.9523180  -0.0740084
  -0.2113929   0.0037111   0.0159344  -0.3435470   0.1736138   0.1681931
   0.0876666   0.6055538   1.4331014  -0.0138206   0.1837152  -0.0945859
   0.9338112   0.3085472   0.0113898   0.0525589   0.1918249  -0.1896864
  -0.6113656  -0.0647087   0.4225404  -0.1388604  -0.3561844  -1.1608203
  -1.1663932  -0.3727550  -0.3859213  -0.2129078  -0.1421956   0.2967156
   0.4240351   0.2507412   0.9099360  -0.3797247   0.4669005   0.3560261
  -0.1124450  -0.6454247   0.8790959   0.0070877  -0.3862525  -0.4807899
  -0.3185770   0.1383486   0.1005335   0.2984680   0.1128443   0.0912631
  -0.8480962   0.5090612   0.3639722  -0.0333428   0.1003370   0.0304374
  -0.1376486  -1.4908443  -0.4588300  -0.0478023   0.0572051  -0.1231701
  -0.3151764   0.0134685   0.1265612   0.5363424  -0.4309480   0.6298044
  -0.2191707   0.0609868  -0.0056112   0.0557973   0.5597601  -0.3606283
   0.1490972   0.0377476   0.2935666  -0.0060612  -0.3715931  -0.1470514
  -0.4907637   0.3943534   0.5323323   1.3181022   0.2699402   0.7615413
  -0.2854668   0.2378895  -0.4005743   0.3960534  -0.5385910  -0.4961233
   0.3184924   0.1534223  -0.4301105  -0.2933507   0.1874189  -0.6682146
   0.3420065   0.2665143   0.0601181  -0.0031659  -0.1953676  -0.1301024
  -0.1162049  -0.0759596  -0.0942104   1.2594066   1.2453609   0.3939430
  -0.1946720  -0.5940471  -0.0855819   0.2787260   1.1389966   0.6197892
   0.0690728   0.1195229  -0.4184240   0.6992670  -0.0484100   0.3804076
  -0.5907572  -0.3860623  -0.4686229  -0.1015191  -0.0521854  -0.2689804
   0.5176478  -0.7050053   0.4906163  -0.1331748   0.1373830  -0.0110923
  -0.1793651   0.3070264  -0.0224598   0.2885472  -0.2575413  -0.1574628
   0.6966825   0.5682197   0.2206177   0.1409220  -0.0567533  -0.1224671
  -0.9076674  -0.1201421   0.3849651   0.2041584   0.3478989  -0.4767911
  -0.0416083   0.3902814  -0.7112187   0.0105129   0.5645182  -0.3099717
   0.3367878   0.5814799  -0.6170158   0.2580604   0.2323155   0.0901765
   0.3040113  -0.0953664   0.0436717   0.2053830  -0.4511894  -0.5056501
   0.7656480  -0.4787009  -0.4370916  -0.0323199  -0.2440453  -0.0927142
   0.2477431   0.3203643  -0.0877791   0.0530831  -0.0677446   0.2103523
  -0.6963251   0.2878156  -0.0499761  -0.0821011   0.2422478   0.0408656
   0.3633282   0.2919963  -0.2149825  -0.2249549   0.0512665  -0.0489510
   0.5938600  -0.8551935  -1.3220208   0.0976031  -0.0393742   0.0410043
   1.4097299   0.0229933  -0.8269360  -0.1215084   0.3738688  -0.1326728
   0.1005455   0.0087436  -0.2509850  -0.0039430   0.1484704   0.1390374
   0.0600404   0.3603718   0.1541625  -0.3705859   0.0908258   0.6224497
   0.9854204   0.4529882   0.3203328   0.1724399  -0.2135095   0.4333998
   0.0500244  -0.0349606   0.1532216   0.0197387   0.0958940   0.3418743
   0.2829325   0.0928501  -0.2273491   0.9461957  -0.0421484  -0.4898159
   0.4789070   0.4769766  -0.1147960   0.1668811   0.0388719   0.0231869
  -0.2192813  -0.2282358   0.4746166   0.3919151   0.0271548   0.0480038
  -0.1333705  -0.2130104   0.0334100  -0.1366503  -0.1870137  -0.1544531
  -0.1998642  -0.2658966  -0.1188922   0.0036932   0.1236291   0.0756103
   0.1884474   0.0920612  -0.5084389   0.1842227  -0.4446039  -0.2159130
  -0.5419513  -0.3097618  -0.2295142   0.8228194  -0.9537408   0.6987548
   0.1610590  -0.3629469  -0.2336169  -0.3308710   0.1633317   0.0985263
  -0.1939629  -0.0508874  -0.0161334  -0.1680662  -0.0986977   0.1121631
   0.0657942  -0.0712098   0.1774657  -0.1605129  -0.0614337  -0.1387718
  -0.7260474  -0.7343333  -0.6928400   0.0511023   0.4294127  -0.0954058
   0.3201422   0.6725172   0.1777935  -0.0242910   0.1722981   0.1676452
  -0.2400544  -0.0101539   0.0198541  -0.0350437   0.1781242  -0.0068664
   0.3065752   0.1312520  -0.3391587   0.5127847  -0.2414589  -0.0220833
   0.0966539  -0.3020419  -0.1030125   0.0133523   0.6267675  -1.1778904
   1.1218235   0.4229611  -0.1858813   0.3704579  -0.3088540   0.3750793
   0.0569032  -0.2025537  -0.1231843  -0.3022655  -0.2516535  -0.0787424
   0.6075561  -0.2595065  -0.3356319   0.2621378  -0.2758165  -2.2046853
   0.1416600   0.0090551  -0.1515754   0.1621655  -0.0449094  -0.0450814
  -0.0741123   0.1360151  -0.2263719   0.0713891  -0.6795702   0.1613791
  -0.1043858  -0.0610302  -0.5630833   0.2245282   0.5760096  -1.1331910
  -0.0051393   0.2799652  -0.0355321   0.0550174   0.4133656  -0.7714570
  -0.9338733  -0.0776504  -0.4285340  -0.2793386  -0.4722140   0.0216805
  -0.0651176   0.5484059  -0.0028489   0.1188485   0.8369475  -0.4901321
   0.0745241   0.4020316   0.1095531  -0.3404978   0.2279009  -0.0931253
   0.2575433  -0.2469850  -0.0076147  -0.0581583  -1.6553975  -0.1129635
   0.0608359  -0.1542328  -0.2680648   0.7830354  -0.6108872   1.0028213
   0.0939751  -0.4417754   0.0099895  -0.0108108  -0.0411073   0.2287740
   0.0388153  -0.2272105  -0.0166111  -0.1112418  -0.8470694   0.2176458
   0.0382967   0.3621115   0.2181263   0.9347823   0.3341561  -0.6469444
  -0.0910773   0.5589087  -0.2262085   0.1969782  -1.4863074   0.8078805
   0.9588521   0.2085337  -0.2059119  -0.8935454  -0.6370070  -0.9105290
  -0.0175777  -0.0158990  -0.3164941  -0.4157659   0.3431464   0.0576578
   0.0715365   0.1362389   0.0631067   0.0942800  -0.7446325   0.4203019
   0.0286174   0.3164722  -0.1631105   1.0651599   0.8524168  -0.6599134
  -0.0829533   0.1265333  -0.1404106  -0.7082300  -0.4904521  -0.6393092
  -0.2102959  -0.1061697   0.4280147   0.0891202  -0.1127268  -0.2171686
  -0.1412460  -0.1195490  -0.4999525  -1.0715071   0.0043508  -0.3569435
  -0.0729889  -0.0786762   0.4883065   0.0047871  -0.0618056   0.6266781
   0.2202476   0.1582165   0.6295625  -0.2205020  -0.3305667   0.5098564
  -0.3029697   0.3391203   0.0042737   0.4081660  -0.0107484   0.2784229
   0.3075848  -0.2325646   0.0990688   0.4157749   0.5617877  -0.1611564
  -0.1167222  -0.2557150   0.1712461  -0.0909239  -0.2601097   0.8277349
   0.2453780  -0.1372514  -0.1955030  -0.0323442   1.2621358  -0.8789883
   0.4787868  -0.0315233   0.3033816  -0.1978079   0.1917684   0.5290127
  -0.1679374  -0.0248062  -0.0681860   0.4428368   0.5609275  -0.2542717
   0.0697167  -0.2544015   0.1828141   0.4431988   0.8853277   0.7097129
  -0.1415299   0.7476167  -0.0424791   0.1751169  -0.4243984  -0.3258672
  -0.0022298  -0.2118761   0.2337125  -0.9065895  -1.4826986   0.4661424
  -0.1028396  -0.1393753  -0.2171525   0.0694294   0.7816195   0.0059634
  -0.3760696  -0.1076359  -0.0742979  -0.2156972   0.0555839  -0.0115876
   0.2791731  -0.3438745   0.1962600  -0.1100385  -0.3806348  -0.0826506
   0.6216110  -0.1470658   0.2073319  -2.1580990  -0.6916419   0.2455387
  -0.0731753  -0.0985260   0.2561257   0.1812786  -0.4758732   1.0097737
   0.2619795  -0.6400854   0.5123057   0.1402440  -0.0024120   0.3651914
  -0.3381654   0.5194452   1.6322337  -0.3740779   0.5912109  -0.6208681
   0.0511780   0.2575334   0.2334089  -0.0928257  -0.5628064   0.4089983
  -0.2551999   0.0876159  -0.0554438  -0.0815631  -0.1642407   0.0230610
   0.0061077  -0.1060811   0.0491960   0.1720705  -0.6070158  -0.3418975
   0.2742196  -0.1582276   0.1904289  -0.3294478   0.5653515   1.4187808
  -0.4423669   0.1678674   0.2552139   0.7073148   0.8949667   0.9264561
   1.0946558  -0.4848093  -0.0122446  -0.3870714   1.0039405   0.1678000
  -0.2914324  -0.1790368   0.1895391   0.2163515   0.2099545  -0.0056253
  -0.2496392  -0.2060873  -0.0442923  -1.1839685  -0.0249285  -0.5197984
   0.2760739  -0.2085165   0.2195917   1.1584669  -0.8022974   0.4067880
  -0.0584608  -0.0704569  -0.5530849  -0.1258659  -0.5180050  -0.1234403
  -0.0421814  -0.1261444  -0.0165732   0.1562510  -0.6023403   0.2415771
  -0.2447969  -0.1856564  -0.2102436   0.0654945  -0.9401827   2.0178632
  -0.1040903  -0.0065470   0.0301345   0.9678465  -0.5728237   0.6455381
   0.3387226  -0.5961206   0.0665596  -0.0367791  -0.3111647   0.0100091
  -0.3836730   0.9124920   0.3681653   1.1531516   0.4997496   0.8857295
  -0.0984120   0.1949201  -0.1441130  -0.4687657  -0.1350708  -0.3270781
  -1.4021137   0.4424715   0.0506885   0.3080712  -0.4899921   0.0196599
  -0.0184242  -0.0214670  -0.3471484   0.0478990   0.0968442   0.1320944
   0.2392318  -0.2338695   0.2131288   0.8663529  -0.9360584   0.6414639
  -0.3126698   0.1469173  -0.2727546  -0.7110100   0.1960718  -1.2368269
  -0.3952317  -0.1224327   0.4326422  -1.8744195  -0.5327234   0.2902630
  -0.0036756   0.0480802   0.7483295  -0.4707347   0.6265718   0.5646221
   0.0684415   0.2073408  -0.0321746  -0.0864638  -0.0489103  -0.0470485
   0.0655022  -0.0603406  -0.1695283  -0.4382536   0.4260260   0.0637152
   0.0008561   0.4706035  -0.4320473   0.6053359   0.0493187  -0.7784539
   0.0631112  -0.3435323   0.0020514   0.4103034   1.5098457   0.3892577
  -0.2804852   0.2125682  -0.1900202   0.4761259   0.0635458  -0.5513563
   0.8393416   0.7519862   1.0034015  -0.2898265  -0.1980981   0.9406120
   0.1029998  -0.1788942  -0.1519029   0.4669839   0.3611370   0.2245162
  -0.5032423   0.9556573   0.3044273   0.3629835  -0.0199306   0.9617347
   0.2960953  -0.0255513   0.0742364  -0.2298993  -0.2628877  -0.0621905
  -0.3361732   0.1747697   0.1946033  -0.9050358   0.5079633   0.9827712
   0.0904799   0.3211306  -0.2380252  -0.4201137   0.2695937  -0.1590153
   0.1008254  -0.0773219   0.2847297   0.9969871  -1.3091735  -0.4569130
  -0.2407306   0.2685318  -0.4854968   0.1601364   0.2561632   0.0471216
   0.4650328   0.4660206  -1.9060286  -0.0603978  -0.7085643   0.5188304
  -0.7671703   0.1547174   0.1471400  -1.3278092   0.5864103   1.3764145
  -0.2082602   0.2927545   0.8408093   0.0347952  -0.0558609  -0.2596294
   0.1313613   0.1537567  -0.2006436  -0.2302122  -0.3391115   0.1243385
   0.3684942  -0.2459119  -0.1685863  -0.8158134   0.6737821  -0.4133419
  -0.2647279  -0.4797531  -0.1761870  -0.4057236  -0.3218025  -0.1960243
   0.2543489   0.0887558   1.8684177  -0.3573951   0.9917844   0.1691910
  -0.1719162   0.0057460   0.2520591  -0.2189805  -0.2427009   0.0791853
   0.2613612  -0.2766782  -0.0138585   0.2890844  -0.6624931   0.2551384
   0.1751552   0.1247744   0.0826850   0.0427544   0.0304906   0.4614243
   0.2466440   0.4171343   0.0095530  -0.0637254  -1.0688771   0.3331499
  -0.0845795  -0.6010043  -0.3721323  -0.1817592  -0.0851066   0.4406129
  -1.3693315   0.8357196  -0.1437450   0.8231311  -0.2628844   0.1374796
  -0.1177508   0.0068363  -0.0460900  -0.2242862  -0.0297583   0.2344853
  -0.0251244   0.0284536  -0.2206943  -0.1325692   0.1875577   0.1850041
  -0.0185577   0.3123131   0.1846148   0.0685751   0.1602344  -0.1271962
  -0.1129556   0.3242748  -0.3552262   0.1083503   0.0357893  -0.0644566
   1.2802187  -0.2634766   0.6908044  -0.0324026   0.1534619  -0.2650868
  -0.1040330   0.8712237  -0.3887027   0.3884743   0.7576787   0.5646748
  -0.0906452  -0.4176579   0.0737453   0.3710592  -0.2053293   0.5754911
  -0.3000717  -0.1140651   0.3167605   0.2053586  -0.1667779   0.2471185
  -0.5811924   0.1092814   0.2926010  -1.1841777  -0.8027906  -0.2347241
  -0.1320210   0.0969508   0.1568130  -1.6982560   0.0851802   1.2626997
   2.0208761  -0.2787719  -0.0560649   0.0004639   0.3920395  -0.0463592
  -0.3490696  -0.1440784   0.4361432  -0.0605675  -0.0492602   0.0660515
   0.3019071  -0.3803260  -0.0809785  -0.7371996  -0.9381741   0.0069613
   0.0883278   0.0512449  -0.1363459  -0.4029290  -0.0606582   0.6535897
   0.1449787   0.0006401  -0.0795528   0.8565390   1.2489541   0.5214930
   0.3130516  -0.5199994  -0.3716857   0.0923376  -0.1844268   0.2448323
  -0.5217240   1.6199229   0.9307424   0.2459825   0.1877290   0.0060689
   0.3142453   0.1467078  -0.1310337   0.3328309   0.0191551  -0.2406960
   0.3181319   0.9674482   0.8142530  -0.0693268   0.0678570   0.1930858
   0.2641025   1.0485464  -0.4861475  -0.3938275  -0.9676451  -1.5655894
   0.0560924  -0.2082803  -0.0388349   0.0710754  -0.3074738   0.1019018
  -0.0391451   0.0622962  -0.2405831  -0.4102558   0.4005223  -0.4165550
   0.0627213  -0.2184431   0.1059737   0.4252408   0.7789913  -0.3211222
  -0.1739844   0.1368513   0.1157255  -0.4176175  -0.7553528   0.7267950
  -0.6758410   0.8104333   0.4184757   0.2085279  -0.0585582  -0.3042447
   0.0286427  -0.1499835  -0.2187377   0.1871027  -0.6545148   0.7838296
   0.4317505  -0.0407129   0.0017736  -0.4760017  -0.2019779  -0.4141964
  -0.0648627   0.2991150  -0.3669124  -0.4610173  -0.1849128   0.1980868
  -0.5914475   0.1711533   0.5864973   0.2610836   0.1048732  -0.6603814
   0.1312928  -1.5084719  -1.6040084  -0.0175772  -0.1877617   0.0764867
   0.2043127  -1.4205839  -0.3423946  -0.4101020  -0.0849350   0.1761584
   1.3006158   0.2913259   0.2379236   0.1645005  -0.2297942  -0.6188105
  -0.1396221   0.0490823   0.0868184   0.1073214   0.0346140   0.0362141
   0.4566531   0.0194598  -0.2062935   0.0513567   1.3050594   0.7180303
   0.0164848   0.3014412  -0.1287919   0.0548010   0.4672045   1.4192892
  -0.0605720  -0.0338702   0.2846404   1.1952270  -0.2699554  -0.1008850
  -0.3244853   0.2813217  -0.0480924  -0.0175044  -0.2317542   0.0686584
  -0.7417276  -0.7621572   0.1385105   1.1084381   0.4940980  -2.1266932
   0.1888462  -0.3053040   0.0171163  -0.3735164  -0.1691107  -0.2657688
   0.0299825   0.3984582  -0.1086257  -0.2643850   0.1398982  -0.3209550
   0.1497666  -1.2181508   0.4429699   0.1408796   0.3081972  -0.1739364
  -0.1428940  -0.1662115   0.0104480   0.2581915   0.7512564   0.1047949
   2.0212421   1.1234397   0.0489449   0.1956518  -0.5579989   0.3925799
   0.9826190   0.0164793   0.4590440  -0.3694317   0.0011929   0.0726196
  -0.4104770  -1.1005316  -0.4844470   0.1390010  -0.7208570   0.7363594
   0.2492436  -0.3753476  -0.0186990   0.2289538  -0.2561958   0.1769677
  -0.0586827   1.1923049   0.5961564   0.0723227  -0.1760588  -0.1144011
   0.6745563  -0.3448652  -0.4245401   0.0781107  -0.2296292  -0.0967643
  -0.0005663   0.0016071   0.1909794  -0.0210049   0.6202815  -0.2407744
   0.1756094  -0.2913831  -0.1899250   0.7576033   1.3062862   0.5850317
  -0.0355643   0.1726081  -0.1324048   0.2346797   0.3988855  -0.3058634
  -0.1474152   0.3447254  -0.1897820  -0.1502462  -0.0795729  -0.3205087
   0.0824606  -0.3967419  -0.1372538   0.4974398   0.2320527  -0.1545397
  -0.1066230  -0.1192207  -0.0894489  -0.4274486  -0.5123448   0.3910081
   0.0672783  -0.1503714  -0.3014016   0.2665895  -0.2012256  -0.0154666
   0.2913113   0.0247252   0.2162414  -0.2614109   0.2375516   0.4449347
   0.7337622   0.2487288   0.4012654   1.2202598  -0.8403744  -0.0961178
  -0.1713435  -0.1602656  -0.0381808  -0.2725432  -0.2586158  -0.5537818
  -0.8528102   0.4517564   0.2533656   0.5441983  -0.1047695   0.4801870
  -0.4024497  -0.2013201   0.1715723   0.1328701   0.1393715   0.2942764
  -0.0408316  -0.3900291  -0.2463796  -0.1602132  -0.0692199  -0.4283766
  -0.3524054  -0.7681561  -0.5529114  -0.9726917   0.6289188  -0.7263886
  -0.2945461  -0.2042493  -0.2783353  -0.3098474  -0.5699012  -0.0163546
  -0.4232452  -0.1750437  -0.3234511  -0.0573810  -0.2009894   0.0039998
   0.6747215  -0.9534498   0.2579201   0.0611766   0.0788281  -0.3738274
  -0.5082569   0.3221112   0.1159252  -0.8410763  -0.7758131  -0.3009661
   0.3201610   0.2105437  -0.2385885  -0.3014350   0.1450331  -0.1065882
  -0.2643721  -0.0758697   0.0064037  -1.2550888  -1.5413770   0.8704263
   0.2737311   0.2940019  -0.0264799   0.0922479   0.3814174   0.3421552
   0.0668968  -0.1749973  -0.0280183  -0.3607458   0.4025448   0.7969691
   0.0522168   0.1299786   0.0732202   0.5565237  -0.1280115   0.1284605
  -0.3519996   0.5708040   0.4965452   0.3424578   1.0912750  -0.4095973
   0.1414193   0.3073316   0.0214488   0.0248752  -0.1672611  -0.0385437
   0.4433992   0.2365262  -0.1893061   0.0955233   0.0915106   0.2713935
  -0.1139547   0.0161555  -0.4804432   0.1924860  -0.2286234   0.0762543
   0.2506833   0.0391543  -0.3194251  -0.3179147   0.8826127   0.2099590
  -0.3109241   0.2213712   0.0958908  -0.6495636  -0.2309925   0.7429309
   0.0331620   0.0608392   0.1381193  -0.0678965  -1.3919341  -1.1695114
  -0.1417902   0.0024916   0.2441673  -0.1194134   0.2538805   0.3045087
  -0.1608843   0.9365379   0.0418404  -0.0774531   0.2568215  -0.2950672
  -0.2404841  -0.0735910  -0.0100635   0.4656473  -0.8658940  -0.0716920
   0.2999311   0.0522534   0.1993660   0.3983467   0.2278815   0.2045576
   0.0182077   0.0778757   0.0431372  -0.8047414  -0.2233744   0.4310359
   0.1825013   0.1872747   0.4102552  -0.4530337  -0.3780131   0.3293494
   0.0271763   0.0874680  -0.1022598   0.3419040   1.7939669   0.1852296
  -0.7624190   0.5078340  -0.5939266   0.0293862   0.0755400   0.1198699
  -0.0738874   1.0009394  -0.2964294  -0.0825259  -0.1291325  -0.2716936
   0.1327019  -0.3992139   0.3498777  -0.2729202  -0.0991569  -0.0683387
  -0.3433162   0.7701263   0.8651473  -0.0504684   0.1778733  -0.3313412
   0.3577194  -0.7182322  -0.4932624  -0.2205123  -0.0441049   0.1247749
   0.1278592  -0.0587778   0.5963356   0.7536947  -0.3898202   0.6849992
   0.0180223  -0.0036197  -0.0799549   0.0940759  -0.6376397   0.0762033
  -0.2038748   0.5411571  -1.2503896  -0.0009747   0.0005294   0.1449168
   0.3007654   0.1746574  -0.0282721  -0.1290371   0.3297193  -0.0771492
   0.7264743  -0.0821256  -0.7377088   0.3413882   0.5803347   0.6105837
  -0.2908331  -0.5275094   0.1727089  -0.1599755   0.2848963   0.0096687
   0.0489358  -0.1873489  -0.0627492  -0.8970370   0.6411826  -0.2965237
  -0.4663937   0.0183491   0.1234784  -0.9937373  -0.4285792  -0.5349364
   0.3118725  -0.2000392   0.2758895   0.2940829  -0.2020472   0.3136113
   0.2042913   0.4842358  -0.4066966   0.3297515  -0.2379907   0.0195891
   0.4091516  -1.2578185  -0.5465231   0.1238548   0.7826077   0.6160934
   0.1395516   0.1257397  -0.0124160   0.1228348  -0.2727918  -0.3003184
   0.1111365  -0.1205690  -0.4862557   0.0980386  -1.3022390  -0.7963216
  -0.0432700  -0.4314838  -0.4797552   0.2310331   0.1637776   0.1186234
   0.3252380  -0.3575498   0.0320576   0.0506456  -0.3129704  -0.3421114
   0.2563331  -0.1291744   0.6790057   0.1665391   0.3645504   0.2887065
  -0.5984272  -0.1705622  -0.3383041   0.2211222   0.1252810  -0.0950382
   0.6760757  -0.5231463  -0.1771185   0.4211604   0.1831861  -0.6029368
   0.0312822   0.1272705  -0.0705804   1.0892148   0.1899787   0.7825871
  -0.7578025   0.9608703  -0.0150856  -0.0192963   0.0335573   0.0624661
  -0.3039038   0.0297952  -0.0418107  -0.0254623  -0.3056645   0.0102324
  -0.1138248  -0.1804436  -0.0926341   0.1917943  -0.3115520   0.0316209
   0.0253703  -0.0371283  -0.0516353   0.0753387   0.3549370   1.1912382
   0.5108181  -0.0736243   0.5031648  -0.1320795  -0.6034973   0.1505481
   0.0363762   0.1362709   0.0698596   0.1092015  -0.3943579   0.2721832
   0.6770637   0.4730006   0.4943822   0.0515682   0.1331678  -0.1625145
  -0.0750311   0.3076839  -0.3070320   0.6283448   0.3309966   0.0724268
   0.0222684   0.0691492   0.3233892  -0.0537337   0.2235253  -0.0349880
  -0.6376069   0.0136718   0.1959537  -0.4402609  -0.7314776  -0.5628537
  -0.3954507  -0.1503718  -0.0413027  -0.2845824   0.1045820  -0.3313599
   0.1988618  -0.0496899   0.2603908  -0.1935140  -0.1011185   0.5131520
  -0.1198432  -0.4457515   0.4290777  -0.2918712   0.0951188   0.1436157
  -1.0978605   0.7296479  -0.4144600   0.1615496   0.0210601  -0.1420434
   0.5188774   0.3551562  -0.7447785   0.1953341   0.6228191   0.0579008
   0.1724107   0.1263233  -0.2792389   0.0492906  -0.0668783  -0.2447753
  -0.1442807   0.1120081   0.1941298  -0.0612175  -0.1460842  -0.4039170
   0.1816859  -0.0749662   0.1742490   0.1664469  -0.1039396  -0.2704727
   0.1669345  -0.3109118  -0.3559868   0.0143500   0.2433023  -0.1472359
  -0.7221242   1.9434466   0.1579389   0.0034052  -0.3243078  -0.4392367
  -0.5375051   0.9062794  -0.1149944   0.0267367  -0.1834084  -0.1045187
   0.0268553  -0.2433988  -0.1793297  -0.2989427  -0.2650476   0.6835869
   0.0249175  -0.1015663  -0.1294941  -0.2404435  -0.2729260  -0.0973987
  -0.4534153   0.0788789  -0.1730957  -1.0368989  -0.0372912   0.9535557
   1.1473416   0.2905291   0.6029730   0.0372387  -0.5972431  -0.3273532
   0.1221910  -0.0977039  -0.0040164   0.1885615   0.2599685  -0.0791731
   0.4883809   1.6873248   0.3478766  -0.3734325   0.3450177  -0.1037063
  -0.9408910   0.1004276   0.8955752   0.2261149  -0.2281726   0.0917662
   0.3523908  -0.5726603   0.3891151  -0.1255462  -0.1246967  -0.1153259
   1.1876416   0.2857751  -0.6517951  -0.2819265   0.4174135  -0.0835687
   1.6485553   1.2176853   0.1091122  -0.0067597   0.2618547  -0.3033581
   0.7273971  -0.4102369   1.0083627   0.1839150  -0.0456679   0.1277187
  -0.0461722  -0.0858633   0.0073816  -0.0666984  -0.1994482  -0.3750704
   0.4845647  -0.4953136   0.4574460   0.0667220  -0.2711196  -0.2194630
  -0.0760509   0.1664931  -0.5494018   0.2426393  -0.2279089  -1.2713376
   0.0380648  -0.4138537   0.3213012  -0.0270332   0.2080601   0.1534377
   0.0778449  -0.1338751  -0.0167833   0.2758140  -0.3088107  -0.1539459
   0.3055102   0.0348370   0.1227317  -0.2422935  -0.0543610  -0.6405218
   0.2268054  -0.1162517   0.0727164  -0.4379521   0.0619632  -0.3276148
  -0.1716772   0.0484442  -0.0419028   0.0557375  -0.0691273  -0.0654404
   0.6929110  -0.5604293   2.9793449   0.0237749   0.1338500   0.0439354
   0.6370386   0.0557423  -0.0244397   0.1176672  -0.0077358   0.0915124
  -0.0386227   0.0434641   0.4074729  -1.1106963   0.4647686  -0.0075745
   0.2213097   0.0327577  -0.0584916   0.0638880  -0.5757354  -0.3621854
   0.2858439  -0.3187950   0.0266103   0.1260811   0.8160362   0.2518487
  -0.0572014  -0.3386656   0.1603147   0.5867541   0.2150031  -0.4110503
   0.1418029   0.1487924  -0.2149664   0.0350708  -0.2858867  -0.1407900
  -0.7655120  -0.2833867   0.2808093   0.1756358  -0.5538852  -0.3968910
   0.0221280   0.2106981  -0.0561956   0.0104542  -0.1284306   0.0922139
   0.1702745   0.2205930   0.2129912   1.2194745   1.6378402  -0.5714897
   0.1592112  -0.1649337   0.2930401  -0.9580157  -1.9875795   0.0033484
  -0.3622538   0.0298884   0.0129524  -1.7989685   0.4716494  -0.0866194
  -0.1851497   0.2437343  -0.2262120   0.2113178   0.2266714  -0.0815796
  -0.3343741  -0.5095389  -0.1486410  -0.3664674  -0.8601293  -0.4082464
  -0.1651296  -0.0804067  -0.0445601  -0.1803240   0.5292425   0.1243260
  -0.1667142   0.6021462   1.8148357   0.0963567  -0.0400190  -0.4281389
   2.5183401   0.1302049  -0.1989075   0.3495441  -0.1481200  -0.5206369
  -0.0789189  -0.0957091  -0.0284172   0.1464113   0.6787792  -0.1103296
  -0.6062883  -0.1066423  -0.7000114  -1.5145846  -0.0059152  -0.9756067
   0.1258984   0.3340951  -0.1278977   0.2821776  -0.0723157   0.2525550
   0.6517743  -0.0650638   0.3372365   0.3875871  -0.4751689  -0.0033682
  -0.0554566  -0.1500467  -0.0978093  -0.0252920   1.7849867   0.0666788
   0.1176720  -0.0974323   0.2240090   1.0953827   0.5252251  -0.1605830
  -0.3819636   0.9662745   0.2762174  -0.5056323  -0.1434816   0.2030118
   0.3907159   0.8036032  -0.0147755  -0.0817291  -1.1109521  -0.6712524
   0.4080251  -0.4580735   0.1878990   0.2707353  -0.5165260   0.2256845
   0.3782550  -0.6290853   0.4866063   0.1030893  -0.0203412  -0.1812048
  -0.1855499   0.6074017   0.1638878   0.1711380  -0.7716860  -0.0778903
  -0.0817386   0.3522423  -0.3291950  -0.6871665  -1.5718473  -0.9549132
  -0.0370348  -1.0228680   0.4358256  -1.3557953   0.6162149  -1.5210814
   0.5801348  -0.4961147  -0.0920126   0.1282108  -0.0589540  -0.0070360
  -0.3610879   0.1132020   0.0782105  -0.0737818  -0.0474263   0.2183782
   0.1687831  -0.2275573   0.0949606   0.9148219   0.4740587   0.8443557
   0.3192182   0.5375334   0.4575258   0.0280143   1.0180882   0.1193840
  -0.8941065   0.1483439  -0.3494304   0.1570147   0.0437631   0.0835691
   0.0186365  -0.6000897  -0.3308072  -0.2771966   0.1743276  -0.2255029
  -0.0060097   0.2587710   0.0800229   0.1224382   0.4209915  -0.3576272
   0.5917615  -0.9352200  -0.7681736  -0.2164459  -0.2218915   0.0386239
   0.9166894  -0.7228408   0.0193900  -0.1691414  -0.5530173   0.0059018
  -1.1602838   0.5774135   0.1445885  -0.1574041   0.0051282  -0.0225546
  -0.7367588  -0.5810057   0.7506216  -0.6668633  -0.4419776  -0.1394659
  -0.7786515   0.4535403  -0.7638131   0.2048109  -0.0875893   0.2631579
   1.7470202  -0.3854256   0.2143831   0.0985649  -0.3861539   0.5444849
  -0.0518039   0.0750944   0.1826388   0.0297715   0.2098720   0.0709869
   1.3671195   1.1073040  -0.3075576   1.2672232  -0.1019504   0.2179292
  -0.0171294   0.0328877   0.0226373   0.1434964   0.0436212   0.1384632
   0.1598081   0.1830270  -0.3366488  -0.6917232   0.9882461   0.0206600
  -0.3726594  -0.1140579  -0.0533617  -0.2875000  -0.5849500  -0.2161870
   0.0276878   0.1086443  -0.1529557  -0.0568407   0.4023557  -0.0211145
   0.0773995   0.1414101  -0.7443523   0.0696617  -0.2816929  -0.1565539
  -0.1164398  -0.1784597  -0.1547404   1.4058767   0.0803451  -1.8696320
  -0.0798001  -0.4098363  -0.2660840   0.4057360   0.0260946   0.3461085
   0.7298393  -0.6951229  -0.3522830  -0.2382293   0.3110649  -0.3321794
   0.3193305   0.8209738  -0.2668910  -0.2724356  -0.4279937  -0.1976733
   0.1382850  -0.2237310  -0.3013599  -0.3633916   0.3136431  -1.1660957
  -0.4318400  -0.0385242  -0.2876022   0.1929296   0.2959625  -0.1717191
  -0.4509037  -0.1605166  -0.9929565  -0.0952411  -0.7125299  -1.3704363
  -0.3119227  -0.3842409   0.1531842   0.2203279  -0.2908598   0.3082296
   0.2122147  -0.0956516   0.5022188  -0.2098303  -0.3666760   0.7746435
  -0.0053874   0.0384865  -0.1518061   1.0291689   1.2145312  -0.1607847
   0.1143098  -0.1129786  -0.1714402  -0.2803439  -0.9090334   1.6592077
  -0.0891630   0.1842419   0.0296183   0.3486515   0.3392779   0.9898073
  -0.0916926   0.2512911  -0.0669871   0.2499663   0.5028759  -0.2159427
  -0.1704265   0.2688109  -0.2033986  -0.0744097  -0.0988212  -0.2306197
  -0.3317580   0.1137366  -0.9283625  -0.0919979   0.9604734   0.0896015
  -0.0664540  -0.1117210   0.1513068   0.0936367   0.0183611  -0.1211794
  -0.0975702  -0.1885287   0.2574952   0.1584820   0.0857664  -0.0717285
   0.0372707   0.2577400  -0.1906702   0.3731084  -1.0247576  -0.9555335
  -0.0301562   0.0360149  -0.1013382  -0.2737810  -0.0836938   0.1811826
   0.4889755   0.4950140  -0.1571593  -0.2632571   0.0747233   0.0864966
   0.5632329  -0.3905049   0.1230966  -0.9121233   0.0538956   0.8153367
  -0.2038890  -0.1288434   0.1278408   0.0660254  -0.1986413  -0.1628213
  -0.2129524  -1.4855770  -0.0105707  -0.3047529  -0.0939805   0.3563235
   2.0772972  -0.3646261  -0.6496886  -0.0130929   0.3281818   0.3371731
   0.1866999   0.1964874  -0.2622331  -0.1665593   0.1969316  -0.3565737
  -1.1655476   1.7061651   0.7123828   0.1147513  -0.2906004  -0.1154623
   0.1275263   0.6028873   0.1854324  -0.1632526   0.1852076   0.1450529
  -0.0008409  -0.8515609   1.1080951  -1.1092419  -0.5646757  -0.3544185
  -0.0934919   0.2123394   0.0479602  -0.5394590  -0.9522852   1.6397882
  -0.1322552  -0.3866191  -1.2852678  -0.1367343  -0.1207766   0.0017434
   0.0757923  -0.0830346  -0.1380146  -1.0703347  -0.1134618   0.5692418
   0.2426572   0.1504950  -0.2787402   0.0463734   0.7295768   0.4708099
   0.0652112  -0.2327572   0.1896188  -0.0687271  -0.0247213  -0.0250800
   0.1458647  -0.0613862  -0.2531571  -0.3420079   0.2536596   0.4350972
  -0.0290940   0.1053864   0.0947459  -0.5588099  -0.1942534   0.6731671
   0.1142339   0.3396351  -0.2342934   0.6486488   1.7815811  -0.3876626
  -0.0962293  -0.0178806  -0.0546535   1.4016520  -0.9484389   0.4077428
  -0.4010188  -0.1874476   0.2446918   0.1499355  -1.1099212  -0.1599808
   0.1778715  -0.1222544   0.2261257   0.2136569   0.0519771  -0.3317506
   0.1239945  -0.0554459  -0.6717632   0.1749624  -0.0368895   0.0431961
  -0.3691904   0.1447483   0.0339321  -0.2826976  -0.1259949  -0.2060210
  -0.0174180   0.2712983  -0.0437197   0.1950246  -0.5580609   0.1969907
   0.4605663  -0.6812965  -0.2076163   0.2569699  -0.0268599   1.6411953
  -0.0621530  -0.3469407  -0.1075706  -0.3130636  -0.6590911  -0.1636255
   1.1029209   0.2351940   0.4533849  -0.4698264   0.5771652   0.8125728
   0.2435954  -0.2659338  -0.0796729   0.8063017   0.2656099   0.0421267
  -0.4964545   1.0657600  -0.3746379   0.9431711   0.6015687  -0.4208779
   0.4902908   0.4801361   0.0812252   0.0441491   0.1560389   0.1245515
  -0.0344102  -0.4175834  -0.2605315  -0.2121255   0.6853382  -0.4904190
   0.1337737   0.1797647   0.0753315   0.5841133  -0.8450493   1.3391798
  -0.3180991   0.0133992   0.1120801   0.0967290  -0.0157208  -0.7291363
  -1.1734414   0.5882957  -0.0694156  -0.1258255  -0.2528153  -0.0594153
   0.0024516  -0.0214881   0.5894715  -0.5464206  -0.1924692  -0.0858093
   0.2170857  -0.0224671   0.4179602  -0.0391320  -0.1266347  -0.1553292
  -0.0928523   0.0922516   0.1059090   0.7395283   0.4692456  -1.0239549
   0.5588183  -0.4564303   0.8282548   0.0725222   0.1096805  -0.3737067
   0.0800206  -0.2648440   0.0848723   0.0824936  -0.1722453  -0.0911064
  -0.1107616  -1.1112977  -0.2203817  -0.2881382   0.4163774   0.5396554
   0.2007757   0.2075481   1.2746456  -0.0765239   0.2617628   0.0705295
   0.2443249   1.0111101  -0.0318832   0.4393131  -0.0839848   0.0689749
  -1.6020190  -0.1561483  -0.4433211  -0.2253633  -0.0225716  -0.0310399
   0.0750809  -0.4671404   0.4967894   0.1012472   0.3185040   0.0120146
  -0.2365145   0.5234795  -0.6214317  -0.2946668  -0.1538397   0.0495744
   0.1791604   0.4333270  -0.2385495  -0.2412355  -0.0397859   0.2765306
   0.0339444  -0.5392854   0.7509823   0.2062535  -0.1251894   0.0494677
   0.1661938   0.6020132  -0.1431822  -0.0913277  -0.1599664   0.2254041
   0.6353765   0.5705685   0.1221318   0.3319397  -0.8340922   0.2912488
   0.0144536  -0.5734830  -0.2573706   0.0629271  -0.0524978   0.0917808
  -0.3391268   0.0527637  -0.2044092   0.3124442   0.3691011  -0.0786122
   0.0996859   0.0084599  -0.2798422  -0.0913096   0.2800362   0.1811083
  -0.6065889  -1.1119715  -0.2781192   0.0276716  -0.3171930  -0.0163452
   0.1226278  -1.9826317  -1.0933498   0.2798032  -0.1348622   0.0637444
   0.2654944   0.0445120   0.1818555   0.0267300   0.1386971   0.2525383
   0.0009381  -0.2026947   0.4569274  -2.0236683   1.0119170  -0.4846887
   0.6336511   0.6732717  -0.0937306   0.1636903  -0.1232736  -0.1269279
  -0.0311426   0.2998339  -0.6462026   0.6253928   0.3346633   0.0398566
   0.6049774   0.5644733   0.0135092   0.2080063   0.1256817  -0.0809975
   0.0359860   0.3243456   0.0936763  -0.2986199   0.1966380   0.1330951
  -0.3427925  -0.2347904  -0.1264465  -0.4392475  -0.5208378  -0.0249066
  -0.4719100  -0.1819164  -0.0868897   0.0047544  -0.3018206   0.1050178
  -0.1000031   1.3737118   0.3170514  -0.2482245   0.1523290  -0.6215467
  -0.3572115   0.0804223  -0.0202679   0.0519381   0.4167001  -0.6504234
  -0.5447401  -0.4979163  -0.1428308  -0.0459777  -0.0213887   0.4013344
  -0.6499393  -0.0116116   0.3121391   0.0304889   0.0864377  -0.1274229
   0.0751985   0.0836092  -0.1105534   0.1997571   0.0262417   0.2687125
  -1.3967588  -1.1118682  -0.4388935   0.1755100   0.2152873   0.0947134
  -0.4748251  -0.6444428   0.8810574   0.1806599  -0.0615417   0.1472041
  -0.0702245  -0.5283173   0.7012241   0.0358128  -1.7566473  -0.8296885
  -0.1435396   0.0814242  -0.1169872   0.9604046  -1.0245735   0.7156477
   0.1913355   0.9868670  -0.0618690   0.1822000   0.2670973   0.2969080
  -0.1693724  -0.2859534   0.1738595  -0.0550632  -0.3015221  -0.1625388
  -0.1612302   0.2855315  -0.3224699  -0.4564862  -1.0590770  -0.6896792
   0.1328292   0.1046073  -0.2496646  -0.1960347  -0.1500134  -0.4129841
   0.4365986  -0.1348997  -0.0035360   1.2517033   0.6798062  -1.1352095
  -0.3572263   0.1910231  -0.0144386   1.3002765  -0.0641070  -0.0999506
  -0.5273644   0.2990862  -0.0564711   1.3260053  -0.1651720  -0.4047246
  -0.3454816   0.4277174   0.0281904  -0.3564894   0.0276760  -0.1314975
  -0.4183852  -0.2475229   0.0400104   0.1409350  -0.1747561  -0.1191478
   0.1612601   0.1389285   0.0356854  -0.0282789  -0.2019539   0.1824925
  -0.1495400   0.2748713   0.5492741  -0.0132398   0.2966429   0.5738874
   0.1324701  -0.0470625  -0.1103028  -1.2905876  -0.1455828   0.5335672
  -0.0173747   0.3110927   0.0161115   0.5636743   0.8311250  -0.5472117
   0.1451034  -0.1104357   0.0056636  -0.1580147   0.1345736  -0.1947902
   0.6177837   0.7567917   0.4754425   0.2859089   0.3427318   0.3730423
   0.0577400   0.0116965   0.1528113   0.1372349  -0.4262503  -0.1918772
  -0.0345981   0.1470206  -0.1308654   0.1749268  -0.4691750  -0.2101491
  -0.7079428  -1.0969411   0.7651877   0.3249008  -0.0400626  -0.0404056
   0.0849343  -0.1678755  -0.0642122   0.2866848  -0.3518502   0.3906938
  -0.1625641   0.9783082  -0.2361165  -0.3138463   0.0603526  -0.2642246
  -0.9071101   0.4790357  -0.1513322   0.1872427   0.0346890   0.2409203
   0.1173410   0.0367720   0.1045101  -0.1223512  -0.0104606   0.0701306
  -0.1583265   0.3311226   0.8984401  -0.1286306  -0.4777693   0.0512114
  -0.1036188  -0.0155986   0.1000018  -0.1489522   0.4563059  -0.0031663
   1.1814361  -0.7961403  -0.2005567  -0.1653353  -0.4907561  -1.0335304
   0.4753622  -0.0562647   0.2670867  -0.6211750   0.5456853  -0.4343433
   0.3751796  -0.7783725   0.3859233  -1.1185851  -0.2378449  -1.1479235
   0.3812535   0.1737679  -0.4690179  -0.0089268   0.2758622  -0.0716719
   0.1392249   0.1173656  -0.1968709   1.1493011  -1.0527450   0.2933340
  -0.2860369  -0.3332096  -0.0001205  -0.3551540  -0.5829934   0.3262443
  -0.4455657   0.7032777   0.3105099   0.7510048  -0.1432729  -1.0832416
  -0.1487533   0.9150656   0.2115482   0.3702386   0.2714537  -0.1347437
   0.6519161  -0.4840606  -0.0731616   0.1623026   0.8294999  -0.8784805
   0.5091035   0.1305383  -0.0266629   0.4845680  -0.6444417  -0.4930991
   0.3901708   0.4674044  -0.3683452  -0.1575658   0.0958476   0.1591825
  -0.0040390   0.3724341  -0.4760257   0.1679777  -0.1387912   0.1465756
   0.1242145   0.2157769   0.1121814   0.1708750   0.1002379   0.2379287
  -1.6228735  -0.2146975  -1.6907790  -0.0573931   0.0554302  -0.1830999
  -0.0991306  -0.3052344  -0.4756930   1.0306549  -0.5477707  -0.8631716
  -0.4891307  -0.0186119  -0.1180618   0.0694056  -0.1151573   0.1266926
  -0.0046526   0.1830392  -0.1112764   0.4601890   0.8025999  -1.8797487
  -0.4538712  -0.2438409   0.1337272  -0.4468696   0.9140487  -0.2731929
   0.0579971   0.0458624   0.0041908   1.0240861   0.5599866  -1.3287068
   0.3137268   0.1916040   0.0107106  -0.2672651   0.6206399  -0.0252436
   0.0059466  -0.0382780  -0.0863282   0.3697654  -0.2228928  -0.4273304
   0.1043572  -0.0991676  -0.5589573   0.1167939   0.2087812  -0.0126211
   0.2751714  -0.3464248   0.5513662   0.1353738   0.2175367  -0.2873999
   0.5605697  -0.0054119  -0.6693433   0.1532475  -0.1749985  -0.0670562
  -0.4193516  -0.3556677  -0.0923646   0.0162369   0.2471841   0.1989986
   0.5613945   1.0298329  -0.2251908   0.2511504  -0.0936497   0.2251681
   1.8407986  -0.5717849  -0.5486413  -0.2250225  -0.0406925   0.1962335
   0.2813990  -0.6803365  -0.0426411   0.1284676  -0.0738472  -0.0895937
  -0.2490227  -1.2673328   0.0211977  -0.0350976   0.4940664   1.0563468
   0.6330431  -0.2741357  -0.7710353  -0.0257947  -0.0378972  -0.0955224
  -1.4393839  -0.8888711  -0.7624353  -0.4458576   0.6867668  -0.7283152
   0.2767594  -0.6707212  -0.1380852   0.2423864   0.1131506   0.2829416
  -0.0010342   0.1536650   0.0973093   0.0757565   0.1347821   0.2425006
   0.7043764   0.8824357   0.6643651   0.0423275  -0.2660601  -0.0592260
   1.1341358  -1.2172857  -0.7751120   0.1689529  -0.1215787  -0.1135682
   0.3132761   0.5890062   0.1900737   0.9455965  -0.0843160   0.4658650
  -0.0954958   0.1719323   0.1301689  -0.1152041  -0.1400458   0.2635082
  -1.1884405  -0.8344062   0.7834614   0.0903241  -0.1834886  -0.3888831
  -0.0975563   0.5336399   0.2740580   0.1031109   0.1031334   0.2057349
   0.2473081   0.0427052  -0.1584118   0.4222027   0.4653426   0.2550455
   0.1857331   0.0581051  -0.0201663  -0.0843201  -0.2357318  -0.9259263
  -0.1375733  -0.0735594   0.3320068   0.7779681  -0.5537102   0.1723345
  -0.1396229   0.0365764   0.1743787   0.0264752   0.3487142  -0.1406224
  -0.2562620  -0.1295862  -0.0457815   0.3987379   0.0622059   0.2195215
   0.3010617   0.2088269   0.0130554   0.1329692   0.8457135   0.2665101
  -0.0301728   0.1839944   0.2373543  -1.0515607  -0.3783766   0.2315865
   0.0785766   0.5284177   0.0716300  -0.1746586   0.0661610  -0.1299597
  -0.6991669  -1.0558661   0.1740830   0.1292329   0.1195527   0.3788721
   0.5312415  -0.7960034   1.4859892   0.2540876   0.1127090  -0.9191162
  -0.1483487   1.5304028   0.9710002   0.0978771  -0.1399520   0.1838615
   0.3553070   0.1887559  -0.0515378   0.3478478  -0.0675575  -0.8959864
  -1.2734313   0.7345784   0.3008485  -0.4215082  -0.2323586  -0.2619295
  -0.0043231   0.0605697   0.0920817   0.1547457  -0.2252977   0.1741190
  -0.1438553  -0.2999126  -0.1304483  -0.1718419  -0.0228245  -0.1100645
   0.4699334   0.8248836   0.0643233  -0.1870495   0.0073852  -0.0798669
  -0.1338296  -0.4266632   0.1356578   0.3608626   0.1897809   1.3425573
   0.0340227   0.0924568   0.2337619  -1.2186497  -0.0754202   1.4220195
   0.0423602  -0.0839639   0.2013343   0.0516424  -0.1255053   0.3100195
   0.1581944   0.0653773  -0.3265503   0.4055907  -0.3861790   0.2773025
  -0.1414866  -0.1468155  -0.0860662  -0.0490061   0.0927560   0.0796833
   0.1307193   0.2967606  -0.1691854   0.8981830   0.8342620  -0.9892701
   0.0429791   0.0164595  -0.1598247   0.8561020  -0.4109493  -0.2870255
  -0.0493614   0.0502601   0.2272706   0.5209798   0.2600869   0.0162241
  -0.6073204   1.3218920  -0.3452903   0.0399303   0.2377205  -0.2956781
   0.3819272  -0.0977110  -0.4392642  -0.2353895   1.0199554   0.6456926
  -0.1571309  -0.0126532   0.1802745   0.6188677  -0.9241979  -0.5395867
   0.1582156  -1.0826331  -0.1274690  -0.0306403  -0.3307881   0.0582499
   0.4669569  -1.5014634  -0.0850347  -0.1272118   0.3989395   0.5948517
   0.1146035  -0.3806653  -0.0516609  -0.5910451   0.3151695   0.4059049
   0.3610501   0.8523528   0.8727643  -0.3778329  -0.7606040   0.1765375
   0.1217852   0.1597061   0.2636864  -0.2670769  -0.0789418  -0.1295737
  -0.6109592   0.0710550  -0.0406417  -0.8429135   0.2984043   1.0795074
   0.2332607  -0.2699521   0.0455715   0.2527912  -0.2777393   0.0663056
   0.3160890   0.2309632  -0.0538161   1.0395363   0.0090548   0.4718096
   0.2363099  -0.2458229   0.0740948   0.1519500   0.1593021   0.1137837
  -0.1066225   0.1583639   0.2389867   0.0350071  -0.1460691  -0.0878748
  -0.3191770  -0.0184318   0.2534397  -0.5351397  -0.3261855  -0.0373029
   0.1830940  -0.1438502   0.6219424  -0.0760143  -0.1624372   0.7627561
  -0.1605382   0.4904515  -0.0673376  -0.5694012   0.6074693   0.4592266
  -0.5573118   0.0774915   0.2032254  -0.4138009  -0.0045362   0.0023403
  -0.4626615   1.2938882   0.0574483  -0.8971439   0.1083770  -0.1119055
  -0.1803628  -0.3699421  -0.0954335   0.4177971   0.6187050   0.0170096
  -0.6025306   0.3348836  -0.2707905  -0.7010143   0.6077114  -0.3606243
  -0.3194430  -0.2841354   0.0515136   0.2118147   0.0361045  -0.0673484
  -0.1622080  -0.4196836  -0.2866839  -0.3487562  -0.6347470  -0.4497929
   0.0509139   0.7236828   0.0739400  -0.2323053  -0.9296906  -0.2783114
  -0.2520678   0.1197324  -0.1946901   0.4782024  -1.4243433   0.1203956
  -0.0424343  -0.0193370  -0.0618097  -0.0303015  -0.1265473   1.0005607
  -0.1969157   0.0098740  -0.2012936  -0.6906017   1.2763954   0.6271524
  -0.0372787   0.0483621   0.1136520  -0.7574693   0.0245951   0.2012873
   0.0768407  -0.3732617  -0.3765303   0.4837124  -0.3866151   0.6208540
  -0.0059666   0.1015544   0.2563581  -0.3916737   0.1771361   0.0174915
   0.2999302   0.0657863   0.2279426   0.3913811  -0.5466292   0.2454386
   0.1627898  -0.4053992   0.2597331   0.2226914  -0.3481873   0.8021275
   0.0902185   0.1708772   0.0016073  -0.5170073   0.8213382   0.0314500
  -0.2056888  -0.3760942   0.0429934   0.0547180  -0.1504099  -0.0265771
  -0.0319817  -1.8153625   0.7773457  -0.5507822  -0.0694490  -0.1030614
  -0.5142735   0.0118666   0.2703075   0.0706770  -0.6322383   0.1447562
  -0.0658522   0.3222164  -0.2784683  -0.1727856   0.0460759   0.0859614
  -1.2629058  -0.6442268   0.0948926   0.6903496   0.3015892   0.5437443
  -0.3310643  -0.8868250   0.6764823   0.3141707  -0.0585804   0.1966366
  -0.0771259   0.0633116  -0.1492272   0.3583531   0.0726329  -0.2864864
   0.6854135  -0.8252787   0.5422354   0.1265315   0.4091203  -0.4824405
  -0.3289077  -0.5060646   0.2963062  -0.0360299   0.0891287   0.0835480
  -0.1089023  -1.0540042  -0.0677716  -0.2335909   0.4003830  -0.0215466
   0.0118260  -0.1346435   0.0748259  -0.1789223  -0.7567186  -0.1753724
   0.1275230  -0.7061667   0.3801419   0.0303643  -0.0746866   0.2889141
  -0.5002470   0.1080513  -1.6504155   0.4352067   1.0005002  -0.9161523
   0.2522897  -0.1923732   0.4665797   0.4383049   0.8219017   0.9312258
  -0.1696215  -0.3574690  -0.4292001   0.0547713   0.0882613  -0.3938380
   0.3347828  -0.5106432  -0.6042059   1.1313509   1.6512059  -0.4394709
  -0.0416299  -0.0100808   0.6847025  -0.0650238  -0.0332398   0.2688875
   0.2562099   0.4876520   0.7085606   0.2021467   0.1231912   0.1889485
   0.0288192   0.1353812   0.0288580   0.0880212   0.1189813  -0.0008179
   0.1391235  -0.1246720  -0.3614706   0.2090366   0.3583135   0.6637570
  -0.0477992  -0.5214457  -0.6210175  -0.1335194  -0.4710530   0.4318714
  -0.9155318  -0.3496870   0.7332022  -0.6768032  -0.3310279   0.4437107
   0.3232736   0.0908903   0.1165912  -0.0067631  -0.3089659  -0.8087195
  -0.3201708   0.4696075   0.6644502   0.0360302  -0.0885378   0.1017334
  -0.1652538   0.0313058  -0.5732273   0.3343573  -0.1404977   0.1240293
  -0.1268983  -0.0063188   0.2163046  -0.1147213   0.3225633  -0.0476445
  -0.2053992   0.5801092   1.0935603  -0.1147371   0.4975627   0.3157420
   0.6576692   0.0025110   0.1611630   0.2718574  -0.0277467  -0.1253059
   1.2071087  -0.5050790   0.1092325   0.5748687   0.5486725   0.0861548
  -0.0698622   0.0973071   0.0249528   0.1864032   0.1066135   0.0339730
  -0.3674262   0.1399228  -0.1884656  -0.0205137   0.4193319  -0.1120836
  -0.1733126   0.1005530  -0.0717608  -0.3774437   0.0487969   0.3559809
   1.0963636  -0.2043594  -1.5416070   0.2355074  -0.0039118  -0.0318432
  -0.4252233   0.7399156  -0.2265403  -0.2243770  -0.0511737   0.1738147
   0.6017989  -0.5030414  -1.9068995  -0.8658130  -1.0637838  -0.1289305
   0.4574476  -0.3542251  -0.1866781   0.0628793  -0.5709666  -1.0895708
   0.0097937  -0.3472280   0.2024840  -1.0513232  -0.0601352  -1.6127431
  -0.2715807  -0.0736688  -0.5929818   0.3716493   0.8896950   1.0838155
  -0.0067690   0.0196557   0.1420206   0.3613679  -0.1097177  -0.1867172
  -0.4996455  -0.9145294   0.4541199  -0.5170632  -1.2049125   0.0539106
  -0.1289604   0.1956110  -0.2904497   0.2449178   0.2769458   0.1501298
  -0.0277961   0.1818514  -0.3637696  -1.7980778   1.6099389  -0.7618835
   0.4431347   0.0161798   0.1248410   0.6034192  -0.0466702   1.0130854
  -0.1300064  -0.4957883   0.0016074   1.1021088  -0.9618451  -1.0705110
  -0.4112973   0.8270933  -1.4387849  -0.0615324  -0.5159583  -0.1613347
   0.1545461  -0.6921758  -0.0278970  -0.2289248  -0.3992744   0.3203286
   0.0272410  -0.1677700   0.1220729   0.1599949  -0.4129473   0.0659401
  -0.4939062  -0.6497567  -0.7520295   0.1819687   0.1718663  -0.2282807
  -0.1371140  -0.3194145  -0.2301924   0.1059392   0.4478638  -0.2558825
  -0.3813575  -1.0988841  -0.5306638   0.9330741  -0.1883428  -0.0535074
   0.0743979  -0.0066205  -0.1620987   0.1569956  -0.9015636  -1.1161571
  -0.0511808  -0.1953940   0.1862397   0.0887974  -0.1603570   0.0157676
  -0.8755665   0.2679553   0.0116843  -0.0855711   0.2841699   0.5435884
   0.2203869   0.0029060   0.2077495   0.2966544   0.4890256   0.8687501
   1.2023472  -1.0634741   0.6443287  -0.7052836   0.7216934   0.0618785
  -0.1232391   0.0903523  -0.0301499   0.0683286  -0.0004241  -0.1535977
   0.1741365   0.1703829   0.1000515  -0.4546638  -0.4956422  -1.3434242
   0.0850076   0.3485567   0.1127629  -0.2880549  -1.1121894   0.3046032
   0.1414876  -0.0129441   0.0384174   0.3126351  -0.3210527   1.3645684
  -0.0644152   0.3810210   0.0247509  -1.8700965   1.5136507  -0.0136472
   0.4358087   0.6447550  -0.1007694  -0.2620823  -0.2326211  -0.0482591
  -0.0157230  -0.0115467  -0.0241458   0.2000036  -0.6528088  -0.0613284
  -0.0981602   0.3557764  -0.0798093   0.1122970   0.1357722   0.2677752
  -0.0116014   0.3487635  -0.0224938   0.5555009  -0.1289759   0.3659167
  -0.2039326   0.0142208   0.3648673  -0.7461926   0.2659053   0.2052826
  -0.1220931   0.1029556  -0.2110035   0.6391200  -0.3326275  -0.0568307
  -0.1578641   0.6647029   0.0619467   0.4245953  -0.1059613  -0.2927447
  -0.1672834  -0.0261531  -0.6314437  -0.8544406  -0.4534552   0.1655361
   0.0039920   0.1358155   0.2159423   0.1174686  -0.5983349  -1.0831899
  -0.3137811   0.0640385   0.3920175   0.1451114  -0.4162912  -0.0770940
  -0.5582888  -0.2512072  -0.2085527  -0.1077910   1.4193397   0.1637714
  -0.2455747  -0.1457326  -0.0924072   1.0537774  -0.3669648   0.1452902
   0.5615261  -1.4635493  -0.5232040  -0.1269814   0.2298192  -0.6295373
  -0.3465026  -0.0220031   0.2077081  -0.0266890  -0.1204368  -0.0697722
   0.0924565   0.0980373  -0.1284251  -0.3579331  -0.1649068  -0.4457198
  -0.3815296  -0.1953802   0.0052819   0.1905738   0.3150097  -0.1746935
  -0.0637708  -0.1107340  -0.3456694   0.5004953  -0.3534111   0.6899810
  -0.0390596   0.1225956  -0.1451816   0.3305725  -0.2772135   0.0005658
   0.1066939   0.1011965  -0.2418641  -0.0762055   0.0812328   0.2262790
  -0.5852675  -0.1859393   0.2512910   0.7560964  -0.2083495  -0.0000028
  -0.1622021   0.2672332  -0.2537322   0.0995434  -0.0880117  -0.2539548
   0.0520051  -0.1481202  -0.4164041  -0.9981531  -0.5444470   1.3798369
   0.3917391   0.3105779   0.3032661  -0.0795822   0.8117333   0.1367475
  -0.0483145   0.2100678  -0.0037095   0.3085027  -0.2300273   0.3036367
   0.1094580  -0.4171290   0.0241917  -0.6580578  -0.1268447   0.2679586
  -0.0342129  -0.3470572   0.0763088  -0.4991427  -1.1014744   0.8452568
   0.1215375  -0.1154183   0.0219584   0.4345775  -0.5746050  -0.4178068
  -0.1891471   0.2297853   0.2463420  -0.4620504  -0.0082890   0.1259859
  -0.0249895  -0.0117828  -0.2183657   0.2014355  -0.1793273   0.2340461
   0.1451889   0.1312532   0.2134261   0.0194432   0.2511956   0.2998307
  -0.7747690   0.0171541   0.2599630  -0.9852248  -0.6516436   0.6124251
   1.5976901  -0.6931555   0.7788620  -0.4031337   0.0155673   0.2515736
  -0.2056815  -0.3425772   0.2348429   0.5243250  -0.1000623   0.5986625
  -0.0643559  -0.3385611   0.1602176   0.2387981  -0.0449996   0.0328891
  -0.1060281  -0.1316881   0.1584233   0.1344804  -0.1782314   0.2034688
  -0.0792015   0.0850763   0.2786368  -0.0025248  -0.4175586   0.3849907
  -0.6665497  -1.1043351   0.2041729   0.2596652   0.3699982  -0.2384832
   0.5189970   0.7053720  -0.4042084   0.0935199  -0.3855368  -0.1513286
   0.7298757  -1.0851267   1.0890818   0.7485561   0.8927421  -0.3362888
   0.2459437   0.0831708  -0.0663519   0.1916406   0.1284417  -0.1612369
   0.1074058   0.1279757  -0.0512030   0.3588555   0.1527991  -0.0463113
   0.7793212   0.1162247   1.7409721  -1.7465646  -0.2011885  -0.6830727
  -0.2139637  -0.0711487  -0.1828370  -0.2501808   0.0338672  -0.0937268
  -0.0467801   0.2055270  -0.2610782   0.5578101  -0.7298823   0.5187326
  -0.0549621   0.0623955  -0.4781415  -0.1244386  -0.1247471  -0.4286976
   0.0406467   0.2164442   0.1358059   0.0616006   0.2164575   0.1587120
   0.5985864   0.3065024  -0.2401482   0.1582315  -0.8862425   0.2849969
   0.9877812  -1.5560768   0.3159206   0.0625818   0.1398881  -0.0977383
  -0.0893001   1.1184354   0.8498296   0.2567170  -0.0215451  -0.0095372
  -0.0712122   0.0167858   0.2392963   0.4182977  -0.4874708   0.0399175
  -0.0310658  -0.0453280  -0.7620225  -0.0731954  -0.2039208   1.1202370
  -0.0576792   0.0262083  -0.8133584  -0.0982514  -0.0798236  -0.1223068
   0.0371649  -0.0260394  -0.2650115   0.1470473   0.3031282   0.3186831
   0.1840080  -0.4913315  -0.1471513   0.1655347  -1.1974990  -0.1981032
   0.4066454  -0.1921828  -0.1495181  -0.2350143   0.0796696  -0.0544271
   0.0639227  -0.0230890  -0.2478689  -1.2409647   1.7504455  -0.0362956
  -0.1302882  -0.1908058   0.0118341  -0.5489726   0.9112044  -0.1184101
   0.3013249   0.3093593  -0.1522989  -0.6964113   0.1345646  -0.1736179
  -0.5286189   0.3939907   0.8990921   0.0674848   0.0893273   0.1223557
  -0.4448039   0.7084925  -0.6151452   1.5038765   0.6723718  -0.0351722
  -0.0465541  -0.2207524   0.0651541   0.0591183   0.4277503   0.1202074
  -0.6372888   1.2924101  -0.3664294   0.2922366  -0.1695296  -0.5766610
  -0.0921329  -0.9959309   1.4815244  -0.1539089  -0.0337543   0.2562025
   0.0492486  -0.2983833  -0.1358606  -0.1847834  -0.2979960   0.1861452
   0.2772962   0.3552101   0.0442332  -0.0616657   0.1301211   0.3083653
  -0.8658034   0.0613198   0.5054155   0.5084808   0.0356492  -0.3583736
   0.3887942  -0.7569836  -0.8345289   0.2725024   0.2106001  -0.0143457
   0.6383281  -0.6221653   0.4224755  -0.7822464  -0.0854627   0.9824654
   0.3132449   1.1075893   0.1793739   0.1673239   0.0070375   0.1061220
  -0.7373972  -0.9525162  -0.5446923   0.6133421   0.3408464   0.3061051
   0.6481552  -0.1645420  -0.1442075  -0.4545081  -1.1935545  -0.9001054
   0.4549795  -0.0199726  -0.1788803   1.1528307   0.7477243   0.5678459
   0.1303218   0.0514286  -0.0563137  -0.1477945   0.2977492   0.1956942
  -0.0569120  -0.0558537  -0.0766621   0.8519645   0.4892972   0.2579285
   0.4053565  -0.0257678   0.3829098   0.6971195  -0.6725659   0.5882645
  -0.1130234   0.0563932  -0.2515798  -0.6184364   1.0273242  -0.7157707
  -0.8168300  -1.1488319  -0.3031453  -0.0385799   0.0246355   0.2999673
  -0.0844574  -0.0971001  -0.3216807   0.5590333   0.0121700  -0.5419851
  -0.1699265   0.1997323   0.2159455   0.8991910   1.5299162   1.6721179
  -0.5966649   0.5478698   0.4872318   0.3371562  -0.4847674   0.3268386
  -0.1974571   0.2459825  -1.5843500  -0.0460453   0.3473771   0.1832054
  -0.3590181   0.0506750   0.0013793   0.3017975  -0.6061532  -0.8512088
  -0.2277426   0.8680952   0.0606456  -0.0555861   0.3533352  -0.2221914
  -1.0546205   1.4460813  -0.6136526   1.2787574   0.9801004  -0.8547613
  -0.0944697   0.1625926  -0.2134864   0.0535164  -0.0041483  -0.1338956
   0.3585955  -0.1009879   0.0252554  -0.5882281   1.6639237  -0.0728112
   0.2653178   0.0288000   0.0194311   0.4881883   1.1426512   0.6317899
   0.5459371  -0.4211510   0.4516498  -0.0361019  -0.3851447  -0.0263781
  -0.0762730   0.1597767  -0.2527611  -0.1416297  -0.3310647   0.0433575
   0.0459418   0.5925444   0.2264376   0.3797521  -0.0754786  -0.2574482
   0.3070579  -0.3123124  -0.6859640   0.2102639  -0.1568530   0.5203737
  -0.1202434  -0.2682175  -0.1366873   0.2276363  -0.2545419  -0.2811220
   0.1986238  -1.1413197  -1.0297886   0.4176214  -0.3754888  -0.1378391
   0.7883875  -0.3327004  -0.8616149   0.1095343  -0.4315427   0.0609659
  -0.4504406  -1.4686667  -0.2804836   0.0803546   0.0116478  -1.0826819
   0.0564509  -0.1482783   0.1046661   0.0927652  -0.5180988   0.5959061
   0.2420613  -0.2191079  -0.2146133  -0.4256621   0.3135093  -0.0333951
   0.4832650  -0.2560528   0.3093049   0.1292132   0.3715733   0.1760402
   0.0332247  -0.4256120   0.0339003   0.2358278  -0.5962739   0.6763347
  -0.1296198   0.0449543  -0.3274621  -0.1118862   0.1768670  -0.9629393
  -0.0250045  -0.1424329   0.2816983  -0.5356992  -0.0717027  -1.1697831
  -0.2832856  -0.6516657  -0.6718399   0.0901434   0.0917388   0.0369734
  -0.7704440  -0.0709139   0.5361685  -0.0625867  -0.3935185   0.1454363
  -0.1743449   0.1315595  -0.0827194   0.0922311   0.5021516   0.0808924
   1.1491377   0.3120414  -0.3727575   0.0736930   0.1656019  -0.0271658
  -0.5865236   0.3013589  -0.3025899  -0.1911112  -0.2321421  -0.2965886
  -0.2611885  -0.4661669   0.2309212  -0.3910238  -0.6674608   1.0143535
  -0.9496009  -0.0597790   0.8047411   0.4040482   0.0585075  -0.0208488
   0.5509098  -0.3063508   1.9584433   0.6566848  -0.8551268   0.1582905
   0.1602342  -0.1137342  -0.0508366  -0.0678230  -0.2712290  -0.0723130
   0.1211001   0.1312705  -0.2109988   0.0864754   0.5537018  -0.7167699
  -0.0905420  -0.3506054  -0.1136162   0.0193282  -0.4477259   0.2784019
   0.7185170   0.0979184  -0.0526074  -0.2038997   0.4629916  -0.0863367
  -0.1744324   0.3065056  -0.0820931  -0.0099113  -0.0377929  -0.0431968
  -0.2699567  -1.0652439   1.1255376  -0.0837769   0.5053471   0.0674424
   0.3665175  -0.3583809   0.7054035  -0.2258026   0.1612614  -0.1164727
   0.9195928   0.3042712  -0.0711981   0.5005269   1.2419465  -0.0941104
   0.1533149  -0.8077703  -0.2660762  -0.1497386  -0.0627326  -0.0174094
   0.0424940   0.3119035   0.0721677  -0.2939030  -0.1982916  -0.5065311
   0.1345933  -0.1270112  -1.2974826  -0.1489100   0.0527565   0.0898165
  -0.0920331  -0.2724956   0.3656396   0.2387676  -0.0410258   0.0901551
   0.5554861  -0.0011832   0.8661434   0.1297150   0.2424292  -0.3827208
  -0.6639660   0.4131095   0.2092615   0.1213741  -0.6308407   0.0273936
  -0.3990608   0.1627170   0.1376535  -0.2585052  -0.2693744  -0.1221326
  -0.6037651  -0.8428282   0.0921513   0.1896689  -0.5482287  -0.4638012
   0.1765011  -0.5297821  -0.2938126   0.0515699   0.3149365   0.1117128
   0.4441825   1.0965214  -0.6287834  -0.1602274   0.1588931   0.3875110
   1.0866769   0.5139888  -1.3236580   0.2307365   0.0111490  -0.3206714
  -0.4880303   0.0336508  -0.4811548   0.1616882  -0.2255744   0.0421506
  -0.8667044  -0.8004184   0.1694382   0.3163808   0.4558902  -0.1020152
   0.1978766   0.1505266   1.6015050   0.0871479  -0.0731464  -0.0790877
  -0.3416257   0.7785609   0.3627865  -0.1531088  -0.0880586  -0.3824291
   0.2181288   0.1675240   0.0641831   0.0842434  -0.1626664   0.1506555
  -0.4146753  -0.2367237   0.1991869  -0.3619879  -0.3220880  -0.1192472
   1.2344143   0.5036121  -1.2988526   0.1673857  -0.1704474   0.1362694
  -0.3971573   0.6401318   0.7200905   0.1354295   0.0996382   0.2437228
  -0.4963805   1.0368097   0.0205797   0.7016478   0.1341835   0.1896191
   0.6035885   1.6379737   1.6997265   0.2069849  -0.1361497   0.2803564
   0.2106823  -0.4904020   0.2077769   0.3846390   0.2824786   0.5910645
  -1.1222932  -0.6362575  -1.0961356   0.1181565   0.1326842  -0.1683340
   0.3109271  -0.1681491  -0.1693045  -0.1778747   0.0015354   0.2710705
   0.4313456   0.4642305   0.1923423  -0.2563671  -0.2751024  -0.0387313
  -0.7326948   0.5869857  -0.6506362   0.2691249  -0.5694067   0.3753635
  -0.0495515  -0.5612558   0.1908293   0.6384577  -0.5506471  -0.2492000
  -0.1867984  -0.0827924  -0.3974090   1.8885527   0.8282772  -0.3091251
  -0.8149751  -0.6907670   0.0704729  -0.1711715   0.1683451  -0.0705621
  -0.0072076  -0.1918490  -0.0917006  -0.0544198  -0.0430819  -0.0448181
  -0.2182770  -0.3232234   0.4216647  -0.1306553   0.2376041   0.0832138
   0.0496368   0.3721886   0.0285416   0.2264165   0.4036890  -1.1364839
  -0.1410188  -0.1316100   0.2471115  -0.1630750   0.0997800  -0.4701301
  -0.0611300   0.1243483  -0.1487832   0.9280405   0.2753360  -0.3196296
   0.9194137  -1.0334848   0.4807090  -0.0363226  -0.4139874   0.1996509
   0.7017715  -0.1090966  -0.2657501  -0.3691930   0.3377690   0.8093772
   0.2108747   0.3231016   0.2073076   0.4449727  -0.5193342  -0.2152133
  -0.6218119  -0.1484091   0.9195146   0.1444061   0.2746191   0.2832088
  -0.4161012  -0.0557100  -1.1660341   0.3630590   0.1929915  -0.1347683
  -0.0131628  -0.3472918   0.1395387  -0.9674836  -0.3827759   0.5856139
  -0.0511476   0.0439577  -0.2035466  -0.0967999   0.0139312  -0.0957825
   0.5259109   0.9436793  -0.1578813  -0.2409467   0.4964529  -0.2502565
   0.4021806   0.3378320   0.1568591  -0.4286535   0.0774865  -0.3236170
   0.3068823  -0.0539580   0.2525191   0.1322423   0.0888351  -0.8948555
   0.2182294   0.0101823   0.1530356  -0.5268979   0.4471249   0.9843445
  -0.1541292   0.2262327  -0.1968692  -0.6346624  -1.1607017  -0.1824388
  -0.1312248   0.9705467   0.8990400  -0.3223057   0.1239406  -0.1732879
  -0.1000087  -0.2757253   0.0818615  -0.4911282  -0.0050856  -0.1842755
  -0.3654463  -0.1483047  -0.0731646  -0.0267122  -0.0677168  -0.1853244
   0.0627510   0.3471165  -0.0263977  -0.5974594   0.5568503  -0.9843002
   0.0975143   0.0660895  -0.5697103   0.9869971  -1.9022638  -0.8038463
   0.0953071   0.2350190   0.0061268   0.5920993   0.1958324   0.0159854
   0.0873083   0.0362449   0.4498500  -1.0567690   0.3835836  -0.4064328
   0.3195686  -0.8113038  -0.1342862  -0.3571660  -0.2767708   0.2494653
  -0.0262272  -0.1957835  -0.0102314   0.1411762   0.0599696  -1.0640986
  -0.4764494   0.1217981  -0.0910579   0.0695282   0.0165684   0.2708289
  -0.1872714   0.4049166   0.1229367  -0.0684327   0.6131317   0.8047644
  -0.0317893  -0.0367699  -0.0214093  -0.4808390   0.3026037   0.1916539
  -0.2118103   0.1240038   0.3257895  -0.5738307  -0.1130135   0.8229096
  -0.3649907  -1.1049312  -0.5854583   0.0802166  -0.2675962  -0.2682330
  -0.1433925  -0.7406342   0.0339440  -0.2065228   0.0202885  -0.0578665
  -0.3590807  -0.0046699  -0.1951407  -0.1609894  -0.0783993   0.2097432
   0.1430701  -0.1571590  -0.1740977  -0.4044163   0.2586223  -0.4607374
  -0.2553803   0.4472102  -0.0702006   0.0918500  -0.1442641   0.3336370
  -0.6548404   0.1561281  -0.5883894   0.2803197   0.0287088   0.3923408
   2.1050611   0.8168793   0.1171537  -0.3243601  -0.3866405   0.2212993
   0.5316776   0.8667363  -1.7447476  -0.6940955   0.0463329   0.5653971
   0.1792280   0.1689068   0.4225124   1.2941498  -0.1586939  -1.0940863
   0.0867259   0.4922324   0.8628619   0.2350392  -0.1491261   0.0226361
  -0.2500608  -0.0387025  -0.1580214  -0.1200662  -0.0474856   0.2320309
  -0.2282485  -0.1463782  -0.2706839   0.0098106   0.2828334   0.3311587
   0.1492495  -0.1856490  -0.2161893   2.0267464  -1.7521136  -1.1019066
  -0.0076078  -0.1461780  -0.2250288   0.4972354  -0.3667450  -0.5678784
   0.3087633  -0.0009103  -0.1623521  -0.9699108   0.9146830   0.2276138
   1.0373829  -0.5726398   0.2969247  -0.2021504   0.0398490   0.1337074
  -0.6409905  -0.3397915  -1.6116728  -0.5303528  -0.1844086  -0.0498668
  -0.1013992   0.1264727  -0.4019478   0.2499571  -0.2090831  -0.0547093
  -0.4409769  -0.3620982   0.0988864   0.2614069   0.1799898   0.7067575
  -0.0412093  -0.1302456   0.1581555  -0.0350889  -0.1271645  -0.0110732
  -0.3827421  -0.0527934   0.1695752  -0.1427681   0.0866412  -0.2259113
  -0.2988824   0.9583395  -0.3182040  -0.1442090  -0.1870416  -0.0345681
  -0.5071218   0.4571516  -0.3449626   0.1787369  -0.1893035  -0.4709441
   0.2434967  -0.1005814  -0.4053727   0.1474031  -0.0212625  -0.2481790
  -0.5789566   0.8735482  -1.4504321   0.1185263   0.4129580   0.0567608
   0.1029427  -1.4513330  -0.1229302  -0.5537591   0.2252278   0.4714257
  -0.4283866   0.0975679  -0.0733354   0.0847846   0.8334400   0.3524506
  -0.7488202  -0.0794395   0.1954311  -0.5339813   0.0801572  -0.1494168
  -0.2394206   0.1180419  -0.7003442  -0.3306047   0.1704713  -0.0289152
   0.0843773   0.1494533   0.1527216  -1.0391091  -0.6957135  -0.9886723
  -0.6118656  -0.2954069  -0.3602444   1.0519361   0.3642188  -0.9151634
  -0.2291050  -0.0554939  -0.6916909  -0.5708528  -0.2656339   0.6709643
   0.6557588   0.8212565  -0.9125808   0.0215361  -0.1260837   0.0399481
  -0.0741620  -1.1845731  -0.9401874   0.0047669  -0.6466786   0.0381490
  -0.1062127  -0.6635427  -0.9081482   0.6137155  -0.1108553  -0.4181870
  -0.4481911  -0.2493279   0.2521360   0.2588367  -0.1150177   0.0765381
  -0.4926809   0.7010427   0.1727365  -0.9242618  -1.8231325  -0.0493852
   2.4278303   0.7342761   0.3726088  -0.1724008  -0.2888761  -0.1444355
   0.0919654  -0.2084225  -0.1457533   0.3532647   0.2106109   0.0710712
  -0.3109091  -0.0186115  -0.9960342  -0.0236184   0.0095151   0.0499165
  -1.1075699  -0.2520140  -1.1340760   0.2005665   0.1595666  -0.1764854
  -0.2713684  -0.2587819  -0.0118477   0.4920406   0.3915414  -0.6501377
   0.3361901  -0.0716001  -0.2552386   0.7420295  -0.2568629  -0.7530803
   2.2460949   0.8906160   0.2797851  -0.0166266   0.1115872   0.0030044
   0.0632003   0.0398034   0.0080312  -0.1845960  -0.1862222  -0.2984389
  -0.5820502   0.0230654  -0.7201540  -0.4736938  -0.2539761  -0.3153953
   0.2037307  -0.0807018  -0.0521843  -0.1010337   0.0110388  -0.0792601
  -0.0723861   0.0516806   0.0160425   1.0248929  -0.3439041  -0.9742326
   0.1101812   0.0986445  -0.2296484  -0.9218230   0.9269862   0.4962871
  -0.1177296   0.0205016   0.0867594   0.3187350  -1.0804967   0.5703743
  -0.3758685   0.9866654   0.2476741   0.0797837   0.1301589  -0.1426104
   0.2680421   0.6634872   0.0731548  -0.3281424   0.2553371  -0.8192130
  -0.3003712   0.2295973   0.0125520   0.5565432   0.5664816   0.6967443
   0.4395540   0.3437771  -0.4036497   0.0868154   0.0663604   0.2897021
   0.0703011   0.7060517   0.1123074   0.9368918   0.4061234  -0.7167003
  -0.1526184  -0.0755463   0.1048826   0.6450701  -0.0028413  -0.4277099
  -1.2526869   0.1842977   1.0240562  -0.6506326  -0.4184143  -0.1389707
   0.2624965  -0.2606909  -0.1085735   0.0736282  -0.0767771   0.0087533
  -0.0685328   0.0335328   0.0420611  -0.9276130   0.5368107  -0.0489067
  -0.2433572  -0.1610525  -0.2900088  -1.0340971  -0.4852869  -1.1446212
   0.2505014  -0.1030875  -0.1980380  -0.1547246   1.9008072  -0.1806271
  -0.0639091  -0.4391041   0.2713237  -0.0998780  -0.1587748  -0.1956628
  -0.2655798  -0.4932577   0.4666763   0.1155071   0.6748311   0.1924582
  -0.0088191  -0.2569772   0.0996242   0.0994465  -0.9728924  -0.5122442
   0.6047632  -0.2012616  -0.0267639   0.0892506   0.3172146   0.1202738
   0.1514744  -0.4345285  -0.4858334   0.7366038  -0.2636562   0.2022891
   0.1916200  -0.3768211   0.3186329   0.3544861  -0.9682735  -0.5957294
  -0.0104918  -0.1026700   0.1073418  -0.5133553   0.5132931   0.3243908
  -0.6437072  -0.6225384   0.1923536   0.0684887   0.0095516  -0.1889864
  -0.5999278  -0.1329878  -0.1444481   0.2979738   0.6392745   0.5337736
   0.1436503  -0.0051957  -0.0149960  -0.1998836  -0.1801544  -0.0407350
   0.0459920  -0.4011122  -0.5162769  -0.2309495   0.1074232   0.2498838
   0.0819256   0.2295281   0.2963537   0.4041239  -1.3354730   0.2857015
   0.0488308  -0.3873746  -0.1878182  -0.7127448  -0.5665118  -0.2784824
  -0.0962055  -0.0228529  -0.3485892   0.7209387  -0.3695813   0.2288916
  -0.1753903   0.0787155   0.2745981  -0.0120453   0.0062838   0.0918212
   0.0977006   0.3580139   0.4963250  -1.0811583   0.3500604  -0.7566318
  -0.1883496   0.5797315  -0.2061093   0.2534613   0.5885232  -0.1189057
  -0.1173348   0.1303090   0.0334612   1.0463287   0.5671075  -0.3051134
   0.0397218  -0.1472147  -0.0664347  -0.1858477  -0.5164304  -0.1400254
  -0.0176072  -0.0698656  -0.6456231  -0.5154079   1.0466621   0.2065400
   0.5311140  -0.1251805   0.0573018  -0.1598724  -0.2464238  -0.1450885
  -0.3461311  -0.1953400   0.0942018  -0.0376303  -0.0946297  -0.2779291
  -0.5973086  -1.2366966  -0.1095666  -0.0025419  -0.0939650   0.2972664
  -0.4235440   0.2696458  -0.0044859   0.2235833  -0.3259200  -0.0161771
  -0.0744459  -0.2004062   0.0812681  -0.0774691   0.1548234   0.0194068
   0.2825103  -0.8024345  -0.0923473  -0.1414091   0.3117100  -0.5411107
  -0.4899009   0.2448694  -0.0797161  -0.0274862   0.0732045   0.2951535
   0.1997006  -0.2934275   0.1138803  -0.1262253  -0.1918769   0.8315240
  -0.0754090   0.1173115   0.0967433  -0.9884292   0.7745302  -0.5428791
  -0.0740688   0.2256385   0.3244161  -0.3131814  -0.3759464   0.0264701
  -0.0357738   0.2689311   0.2054587   1.2067766   0.3753572  -1.0427433
   0.0256463  -0.7290752  -0.1025989   0.5442460  -0.1128074   0.2829945
  -0.5117770   0.2413957   0.1887198  -0.3282153   0.0955123  -0.2878181
   0.0010572   0.0862403   0.0096090  -0.2507616   0.1275134  -0.3711614
  -0.1605942   0.4296139  -0.0551238  -1.3069838   0.0152849  -0.1950238
  -0.2638733  -0.3599696  -0.5891960  -0.4743347  -0.8877202  -0.9615445
   0.2896286  -0.1012612   0.0617249   0.4162185  -0.1287997   0.1629983
   0.6288032   0.2174996  -0.1189968  -0.1080590  -0.2531186  -0.1751987
   0.5130348  -0.3430027  -0.5522198  -0.0253151   0.0928092  -0.6043533
  -0.4527717  -0.7553832   0.6592297  -0.0651786  -0.3902356   0.1449142
  -0.3288060  -0.5127814  -0.5431120  -0.4798964   0.0364247   0.0628247
   0.7063225   0.0434524   0.3011427  -0.3619670   0.4271614   0.0033590
  -0.1652789   0.2336860  -0.0563790   0.1326495  -0.1313498  -0.0965116
   0.2990500   0.2180694   0.5912936  -0.1612303   0.1193374   0.1065407
  -1.1121927  -0.9951218   0.4421119  -0.0069899   0.1225863   0.3140357
   1.0519307   0.8563460  -0.4593983   0.4855977  -0.3207867   0.4664671
   0.1185568  -0.1251958   0.0567311   0.1896808  -0.0901492   0.1722303
   0.4143274  -1.3230724   0.9927406   0.0886977  -0.0018126   0.0892221
  -0.1398962   0.1299325  -0.2408503  -0.0795958  -0.2532114  -0.2506214
   0.0519399   0.1366355  -0.2067313  -0.0209959   0.0014883   0.1227680
  -0.1009058  -0.2417179  -0.0197758  -0.7617070  -0.2185991  -0.2212675
  -0.0226344  -0.2266663  -0.2318648  -0.2721364   0.4325755  -0.8848237
   0.0051493  -0.1573151   0.3755438   1.2097739  -0.0978487   0.3387499
   0.2367964   0.0871879  -0.0318220   0.1395348   0.3362227   0.4587411
  -0.8639716  -0.2925348   0.0381313   0.5479054  -1.0806701   0.0175208
  -0.2293839   0.3265351  -0.0830567   0.5699199   0.9098971   0.7578043
  -0.1885273  -0.9241268  -0.1122589   0.1687606  -0.4485194  -0.0556647
   0.4867272  -0.0098765   0.7640416   0.4535352   0.0931561  -0.0143249
   0.3776855   0.2027278   0.1352866   0.3816214   1.1381584   0.1199281
   0.2418391  -0.6286342   0.2379506   0.0851391   0.3771694   1.1556788
   0.1407787   0.0300328  -0.0037833  -0.3331791  -0.1618664  -0.1710035
   0.2305467   0.3481494  -0.1396220   0.4502488   0.5364046   0.8210739
  -0.1980582  -0.0895620   0.1584246  -1.3082169   0.6710134  -1.1709168
  -0.2058348  -0.0493701   0.0523610  -1.5056091  -0.2641189  -1.5726983
   0.3755830  -0.0523653  -0.4516780   0.0096242   0.1826867  -0.4228631
   0.8630048   0.4107083  -0.6499953   0.1245933   0.4590754  -0.3575940
   0.3766680   0.5047101   0.1441864   0.1603120   0.0758359  -0.5003751
   1.9988413   2.2440990   0.3056737   0.0763063  -0.2373113   0.0063278
  -0.7449948  -0.6467611  -0.4084799   0.1387308   0.2262867   0.1897836
  -1.0126678  -0.2816145  -0.0917588   0.1351375  -0.0896560  -0.1233554
  -0.1821551   0.4250730   0.1745777   0.1348979   0.0102341  -0.5521705
   0.6853569   0.5905815   1.0945160  -0.0297697  -0.3035326  -0.2320902
  -0.0655123  -1.0789901  -0.5697736   0.0360132   0.1073496  -0.0967047
  -0.7540956  -0.4823528  -0.2686012   0.0674722   0.1678797  -0.0064116
  -0.1914360   0.1915971  -0.4404514  -1.0025317   0.7888864   0.7989419
  -1.0954764  -0.0266170   0.2670709   0.4037130  -0.3882603  -0.2163470
  -0.1347533   0.6023625   1.4571930  -0.3927976  -0.4673012  -0.6340044
  -0.1305978  -0.1397029  -0.0962006  -0.3715204  -0.2048325  -0.2352959
   0.4007227   0.2127631  -1.0700524  -0.8088193  -0.2805040   0.2878951
   0.1188761   0.2019602  -0.0767306  -0.0904349   0.0368519  -0.0030200
   0.0813615  -0.2829110   0.2656463   0.0028193   0.0177090   1.2298714
   0.0518352  -0.0666431  -0.1347012  -0.0540728  -0.3825519   0.2587172
  -0.3317395  -0.1737030  -0.2644519  -0.2492546   0.4222352   0.1494393
   0.4921695   0.4193865  -0.4055090   0.3832857  -0.1711159   0.3815098
   1.1466591   0.4481886   0.4590445  -1.6033755   0.8622557  -0.5803485
   0.0204964   0.2087930  -0.1526866   0.1520316   0.0268411  -0.1243446
  -0.1203767   0.0436275  -0.2905567   0.2079656   0.0045683  -0.2566511
  -0.4245999   0.0296845   0.0058655  -0.1904747  -0.0281933  -0.1305682
   1.7757025   0.0272663   0.1476325   0.1443002  -0.1567996  -0.2158597
   0.4989287  -1.0693556   0.4857072  -0.0197211  -0.1293958   0.1013978
   0.5621583  -1.0542869   1.1387575   0.6925835  -0.7308969   0.2559759
  -0.0384134   0.1937370   0.0844891  -0.7869892   0.1676463  -0.4010193
  -0.5423141   0.1787702  -0.1840071  -0.2288282   0.0043201   0.1795147
   0.1608790  -0.3642522  -0.1376570  -0.1823566  -0.1613879   0.1209506
   0.1318831  -0.0699272   0.0504660   0.0379993  -0.1029279  -0.1991529
  -0.0275489  -0.0013184   0.3392907   0.1912460  -0.3413101   0.0037925
  -0.0730634  -0.0678229  -0.0845453  -1.1551374   0.9021055  -0.6524301
   0.1862213  -0.2210384  -0.2269041   0.2774277  -0.7471988  -0.8120718
   1.0692496  -1.5115510  -1.6534696  -0.0818006   0.1594274  -0.0299443
   0.2448050   0.0532277   0.0419963   0.1954392   0.0534099   0.1287947
  -0.5624976  -1.3402344   0.6117177   0.5126135  -0.4861363   0.1709050
   0.0227543   0.3048721   0.1938091  -0.1406677  -0.0922542  -0.2097385
  -0.2149363  -0.0450357   0.0305849  -0.3220653   0.8713073   1.4352631
   0.1160406   0.1524082   0.0263227   0.1337776  -0.5105680  -0.2274113
  -0.1232551  -0.4373876   0.3431107  -0.1818418  -0.3490369   0.4065283
   0.2779689  -0.9283662   0.8753507  -0.0528907  -0.0186764  -0.1643755
   0.2325975   0.4965133   0.2226541   0.7390775  -0.0662818   0.4098775
  -0.1985927   0.2051954   0.2673596   0.4286187   0.3042974  -0.3607883
  -0.1754673  -0.2402167  -0.0332785  -0.7444790   0.2888938  -1.2437933
   0.1082485   0.2461562   0.3146225  -0.9096478  -0.6791196   0.2013212
  -0.2871467  -0.2497816   0.2562645  -0.0080011  -0.1860117  -0.1676497
  -0.3401011   0.0897456  -0.0968629   0.6991996   0.6453336  -0.9759275
  -0.3046181   0.0855293   0.1724236   0.3962335   0.0549556  -0.0199799
  -0.0719509  -0.0569715   0.2451889  -0.9148860   0.0487835   0.4329041
  -0.3735419   0.1767452   0.2695442   0.8038942  -1.1146936   1.8041636
  -0.1977819  -1.9815859  -0.0385977   0.3662264   0.3436394   0.3192695
  -0.4064612  -0.3503801   0.1334702   0.8913093   0.0263593   0.2692297
  -0.1926939   0.3110468   0.0622239   0.0777158  -0.4982139   0.0497521
  -0.1704824  -0.0626547   0.1460961   0.4085535   0.2210118   0.2671381
  -0.0785207  -0.0044240  -0.2939921   1.1510791  -0.3867772  -0.8058073
  -0.0029635   0.3666943   0.5108408   0.0103894  -0.6458221   0.1823543
  -0.3968897   0.5675749   0.9426715   0.1907568  -0.3159091   0.1286897
   0.0493818  -0.0159438  -0.1564181   0.2177514   0.6425327   0.0136678
  -0.0923092  -0.0199340   0.0225426  -0.2595519   0.8404603  -0.6183139
   0.0520597  -1.1707177  -0.0876943  -0.0361255   0.0986861  -0.2042730
  -0.4069313   0.1024810  -0.2733283  -0.2891790  -0.6378224  -0.9974252
   0.2581081   0.0617890  -0.0854027  -0.1302337   0.1816417  -1.0220076
  -1.0392023   0.1022545  -0.5456646   0.0617573   0.5072849  -0.5944769
   0.1902879  -0.2337607   0.0028135   0.0834828   0.4169129  -0.1268903
   0.0306657  -0.3995015   0.0034278  -0.0507156   0.1344002  -0.1262901
   1.1372086  -0.7135007   0.7526908  -0.3390544  -0.2002899  -0.0924934
  -0.2920895  -0.0392605   0.1980735   0.4119524   0.3697467   1.2897940
   1.6420074  -0.2629169  -0.3726871  -0.1248892   0.1131163   0.1287743
   0.1734054  -0.2906634  -1.2504096   1.3561961   0.6874139   0.0946893
  -0.0184620   0.0459734  -0.0177105   0.4420433   0.5901099   0.0825600
  -0.2364482   0.3145421   0.2257105   0.0052030  -0.0578994   0.0008430
  -0.2903565  -0.1136019   0.3970179   0.2422095  -0.4532697   0.3172161
  -0.1595405  -0.1795457   0.1222304  -0.2816019   0.0516415   0.3034557
  -0.0067429  -0.3830577  -0.4454388  -0.7044550  -0.6806974   0.1966939
   0.0911869  -0.0177303  -0.3131698   0.3406605  -0.1765375  -0.3846274
   0.0625159   0.4511829   0.1839967  -0.8553751  -0.3482326  -1.2159451
   0.2652094  -0.0697652   0.0676444  -0.1120271   0.0194709  -0.3059745
   0.3504873   0.1340141   0.2030614   0.0257758  -0.0601354   0.1356551
  -0.1724124   0.0883334  -0.1183205   0.3053861  -0.3561478  -0.2567442
  -0.3780242   0.6023339   0.6882566  -0.0730913   0.0106316  -0.1459140
  -0.1269222   0.6642792   0.6995681  -0.0503280   0.4006906   0.1011225
   0.1981935   0.4372789  -0.0416206   0.2032989   1.7565427   0.0539418
  -0.1338908   0.1349727   0.2127432  -0.1032524   0.2600396  -0.1580340
  -0.0830018  -0.0861091   0.1743856   0.1177314   0.2528496  -0.0668957
   0.1536518  -0.1537343  -0.0935781   0.1413224   0.3280614   0.1625650
   0.3765219  -0.7746986   0.3389389   0.1281656   0.0527127   0.0344257
   0.7310358  -1.2446569   1.2856091   0.4153327   0.0501248  -0.2936218
   0.0794022   0.3817375  -0.8357409  -0.1333635  -0.1966643   0.2028998
  -0.0450241  -0.1737102  -0.2086816  -0.1833907  -0.6259313   0.3379659
   1.0735914  -0.1884146   0.0627019  -0.1897930  -0.0072406  -0.1390868
   0.3440603  -1.1043711  -0.1319467   0.0163252  -0.0143667   0.2635982
   1.3957300  -0.3239245   1.4188292  -0.3083468   0.1376001   0.2066015
   0.2091430   0.1041670  -0.1041957  -0.1357319   0.1889699  -0.2626259
  -0.4107152   0.2831657  -1.3811746  -0.3363579   0.1066603   0.0460702
  -0.0404952   0.4126934  -1.2766058   0.3333331   0.4425558   0.3471144
  -0.1689914  -0.3329020  -0.9059084  -0.1620491  -0.0638469   0.0401981
   0.2676703   0.0531445   0.9841108  -0.0816261   0.1986616  -0.3636841
  -0.3162304   0.5643523   0.0527838  -0.1490057   0.2941030   0.5403772
   0.0196500   0.4488654  -0.7165876   0.3150282   0.9361943  -0.3842354
  -0.3992830  -0.7276003   0.3430767  -0.0376905   0.0196210   0.0025444
   0.3284133   0.0722402  -0.2555789   0.0425656   0.0891166  -0.2874588
  -0.6491908   2.4021773  -0.1363478   0.1416472   0.0474309   0.1344244
   0.4083540  -0.4679479   0.3650101   0.1836427  -0.2348722  -0.0064190
  -0.2348698   0.0010968   0.3862764  -0.1454893  -1.0754599  -0.6866608
  -0.0090298   0.2408146  -0.0862301   0.6583088  -0.0576477   0.2671031
  -0.9688344  -0.4703289   0.2210695  -0.0166338  -0.3078012   0.2955038
  -0.1537845  -0.2390600   0.0841375   0.0043480  -0.2099552   0.0693847
   0.1871978  -0.4915691  -0.7494640   0.3896869  -1.0100301   0.2029067
  -0.1175759   0.2216001   0.3480643  -0.1143188   0.0335044  -0.4762962
   0.0532935  -0.1696774   0.1822914  -0.4902939   0.7417692  -0.5388989
   0.0737383   0.1877492  -0.0797129  -0.5073397   0.1973259  -0.7802694
  -0.0372185  -0.0608486  -0.3506074  -2.2626575  -0.3954796   0.7253813
   1.3941256  -1.6050623  -0.2622168   0.0467981   0.1750013  -0.4393136
   0.2641087  -0.0271810   0.2738871   0.5736309  -0.3049261  -0.0259995
  -0.1630328  -0.0958669   0.0424937  -0.1192387  -0.2713374   0.0446319
  -0.0720736  -0.9120087  -0.0990276  -0.3563411  -0.5092420  -0.6933853
  -0.4475089  -0.9440290  -0.9622831  -0.1016226   0.1615197  -0.2762981
   0.0126019  -0.0148544   0.0808494  -0.0606721  -0.1589261   0.0323251
   0.1472544  -0.4124141   0.7302817   0.0094411  -0.0322140  -0.0601961
  -0.5328131   0.5503178  -0.7324660   0.1499073   0.0154019   0.2205500
   0.4337460  -0.7785654  -1.0737296   0.0486820   0.1201229   0.1838442
   0.1952228   0.3676173   0.3516659   0.1136084   0.9848287   0.8152664
   0.1377678   0.1722780  -0.0393984   0.4927201   0.7470436   0.1919655
  -0.3288430  -0.5052026   0.3367848   0.4483073   0.1340227   0.4548836
  -0.2502224  -0.1536341   0.0690162   0.6480921   0.6616148  -0.9938913
  -1.0365413   0.2622884   1.3972717  -0.3815423  -0.1285359  -1.1898301
   0.0722021  -0.0533518  -0.3172887  -0.0113063   0.1449955  -0.1960298
   0.2499667   0.0591788   0.0156182  -0.0754635   0.2002866   0.6347659
   0.2551559  -0.3095988  -0.1192206  -0.2170876   0.5950055  -0.7760229
   0.0110724  -0.0133014  -0.1267540   0.3463631  -1.0664923   1.4762653
  -1.1010943  -0.7019653   0.8712389  -0.3203563   0.2373222   0.1083961
  -0.7131748   0.7029787   0.0040821  -0.2390845   0.0950085   0.1344331
   0.4596832  -0.1633774   2.4333914   0.6358042   0.4523946  -0.4587374
  -0.3457526  -0.2276237  -0.0201749   0.0078710  -0.0701765   0.3181462
   0.0210226  -0.0961696   0.3130825   0.2764718   0.2994509   0.0185795
  -0.0175721   0.7735894  -0.5184662  -0.3715443   0.3376472  -0.2014639
   0.1221441   0.2735436  -0.1042172  -0.2044610  -0.1220716  -0.1441749
  -0.6470021  -0.2030497   0.3753011  -0.1492181   0.2788413   0.3671502
   0.0407585  -0.3288104   0.3897459   0.1569236  -0.3697657  -0.2536717
   0.2798021   0.6355014   0.5656575  -0.1380091   0.7319248  -2.1153985
   0.1197171  -0.1706008   0.0488048  -0.1050938  -0.4872258  -0.2310356
   0.1743323  -0.1322398  -0.4998115   0.2191746   0.2171196   0.1363429
  -0.1994500  -0.3476219  -0.0671311   0.2733412   0.2607282  -0.6309085
  -0.2611567  -0.0424043  -0.1813347  -1.2453144   0.4704130   1.0303451
   0.1318542   0.0857834   0.1219515   0.3049853  -0.6249217  -0.9702679
  -0.4420085   0.3521255  -0.2869587   0.5982791  -1.2075586  -0.4867933
   0.1101591  -0.0092268  -0.0886612   0.0555515  -0.1180912  -0.1612676
  -0.1636179   0.1604816  -0.0716620   0.0754653  -0.3208179  -0.0670221
   0.0963623  -0.3473281   0.0626863  -0.0160798   0.8881265   0.3497131
   0.1666532   0.1146555  -0.0421040  -0.5588238   0.4783307  -1.1455608
  -0.1033997   0.1031416  -0.0998079  -0.3349999  -1.2593771  -0.7566530
  -0.2911762  -0.4532132  -0.1023380   0.9718947   0.5572114  -0.5358327
  -0.0202917   0.1375784  -0.0981825  -0.0232903   0.1309975  -0.1363954
  -0.0684661   0.0372832  -0.0048733  -0.1721220   0.5466532   0.5723723
   0.1066346  -0.1497625   0.0364816  -0.0432078   0.0123751   0.1008198
  -0.3039434  -1.3849712  -0.0306217   0.0932540   0.6387025   1.1738405
   0.0925530  -0.0767090   0.0813577  -0.0954186  -1.4091043   0.9346953
   0.1647686  -0.0195829   0.0131798   0.2281263  -0.1543511   0.0641413
  -0.0149063   0.0198525   0.9918677   0.3182410  -0.2662107   0.0831087
   0.4236461   0.1818323   0.3248446   0.3737105  -0.3237275  -0.4368578
  -0.4269976   0.1328902   0.0467199   0.1193002   0.0079662   0.2300414
   0.0816523  -0.0092812   0.2058879  -1.2584309   0.7963061  -0.4199642
   0.1994755   0.1998851  -0.1262565   0.7344455  -0.0042748   0.6559876
   0.0927859   0.1630964   0.2363105  -0.7723031   0.7830105  -0.5454240
   0.8644236  -0.2027407  -0.6912545   0.6731641   0.0323190   0.3999094
   0.1640406  -0.2043894   0.2423373  -0.0685049  -0.2331758  -0.0768761
  -0.0674924  -0.0932379  -0.3026436  -0.1029723  -0.1315258   0.0613593
  -0.2443831  -0.1633821   0.1268606  -0.5685966   1.0392994   0.8194329
   0.0507536   0.3369385  -0.0418766   1.1227911   1.4716482   0.4421518
   0.0755649   0.1952774   0.1686578   0.1781869  -0.0245162  -0.0340229
   1.3555358   0.3524158   0.5584296  -0.0838290   0.2495399  -0.3724108
  -0.4320822  -0.4045936  -0.1571065  -0.0209736  -0.5551196  -0.2699949
  -0.6916437  -1.2581499  -0.2414344  -0.0865190  -0.4745239   0.2557809
  -1.1162465  -0.4985130   0.1962137   0.1254125  -0.5508980  -0.0951618
   0.0130576  -0.3411253  -1.1783599   0.9333508  -0.2446034  -0.1960988
   0.7519324  -0.7871429  -0.1627241   0.0880382  -0.0477694   0.1853602
  -0.4814686   0.1221274   0.0266960   0.3413144   0.1845619   0.0038010
   0.7511337   0.8313660   0.2075043  -0.3125669   0.2451058  -0.5678038
  -0.5908292  -0.1001587  -0.8255411  -0.3289384  -0.1113118  -0.1644570
  -0.8942955  -0.2503188  -0.1384213  -0.3044654   0.6164785  -0.0279837
   0.1901526  -0.1229483  -0.2569940  -0.1939008   0.0444129  -0.1440537
  -0.2490272   0.3330807   0.5400600   0.0809360   0.1843707   0.3486799
   0.3005100   0.4005820   0.3915064   0.1896304   0.0427158  -0.1080874
   1.1814047   1.2059378  -1.6780729  -0.0316842  -0.1988398   0.4035996
   0.9317026  -0.1431404   0.4058771  -0.2046352   0.1145749  -0.0758511
  -0.1435286   0.0395120  -0.0655043  -0.2217270  -0.0561553   0.2752955
  -0.1683856   0.7829470   0.2660300   0.1843861   0.3848964  -0.3325759
   0.3164538  -0.2366450  -1.3842605   0.3029241   0.0402381  -0.1463323
   0.3651448   0.8375305  -0.7151195   0.3508159   0.0280901  -0.2367500
   0.8903676  -0.2734604   0.3960403   0.0917119   0.0427543  -0.0944337
   0.1568009  -0.0962530  -0.1108688   0.3544514   0.0221768  -0.3476756
   0.0338654   1.0593917  -0.8440035   0.2204140  -0.4065870   0.1548882
   0.2366158  -0.1835810   0.4673266  -0.1364378   0.0011497   0.1526199
  -0.3759107   0.0952565   0.2917139   0.0413476   0.2659829  -0.4611717
  -1.7778652  -0.0157456  -0.6517793   0.0406222   0.4573357  -0.5392883
   0.2055697   0.1874280  -0.1300186  -0.1453985   0.0342960  -0.1958746
  -0.3193600  -0.0335668  -0.0750989  -0.5031753   0.2008045   0.0805514
   0.0336372   0.1433658   0.9822767  -0.1730342   0.1159557   0.2826965
  -0.0204078  -0.2614482  -0.3468882   0.1994482  -0.1228126   0.1135591
   0.0160227   0.7643171  -0.3492774  -0.4398417   0.0284978  -0.2999135
  -0.4627606  -1.0477368   0.5939002  -0.1071135   0.0859663   0.1517542
  -0.7016628  -0.1714285  -0.2957166  -0.2082561   0.1207196   0.1484287
  -0.1524991  -0.2477377  -0.1995420   0.2062226  -0.0126426   0.4071549
   0.5342150   0.5065988   0.4033159   0.0718099  -0.0706824  -0.0430249
  -0.1572426  -0.1042497  -0.4109155  -0.2146019   0.1350106   0.0932709
  -0.0951977   0.4237762  -0.2770864  -0.1900435   0.3011060   0.0172244
   0.5518805   0.7135171   0.1255821   0.2371522  -0.3056449   0.3870904
  -0.0904637  -0.1414147   0.0126511   0.0964671   0.4938592   0.0125111
   0.0822313   0.1720415  -0.2687971  -0.5592512  -0.1410177   0.0701906
   0.0193638  -0.2064479  -0.2087521  -0.1942032  -0.5370095  -0.3031688
  -0.2161213  -0.0109846   0.8643207  -0.4120031  -0.3459828  -0.0104703
  -0.2276568   1.4343251  -0.1243115  -0.8909571  -0.5438528   0.0896990
  -0.2377343   0.1745690   0.0973089   0.6140750   0.7013366   0.3816843
  -0.6497062   0.4717052   0.5231051   0.0178515  -0.2851797  -0.2465052
   0.1746405  -0.2386433  -0.2681626   0.1171684  -0.0209208  -0.1088894
   0.0624171  -0.1455669   0.1152235   0.4614721   0.1365305   0.1657187
   0.5929223  -0.2044301   0.6199447   0.0291302   0.0514309   0.2743472
   1.1713553  -1.0934804  -0.1670738   0.2028287   0.2569434   0.1313621
   1.2063703  -0.3117046   0.5125133  -0.5798619  -0.4138571   0.4891123
   0.9389296   1.6530907   0.5555789  -0.2924026  -0.2545901   0.3289782
   0.0357666   0.1762674   0.3207457  -0.2041128   0.5879444  -0.2150421
   0.2221457   0.3273034   0.4423585   0.2775621   0.4132998   0.1202061
  -0.3372095  -0.6596456  -1.0857037   0.0893420  -0.3271642  -0.3180238
   0.7110363  -0.6417595  -0.4740498   0.6647408   0.9170912  -0.2019635
   0.0034929   0.4565015   0.0560349   0.0793977  -0.4743624   0.4685856
   0.0215679   0.3108694  -0.6182646  -0.1277142  -0.0237484   0.0416588
  -1.1071547   0.3711898  -0.0445885  -1.1089178  -0.0945461   1.5947068
  -0.0948672  -0.0148314  -0.1310388  -0.6073931   0.5351559  -0.0529570
   0.3817148   0.7550168   1.4620717  -0.0549726   0.0831381  -0.2754221
   1.0062817  -0.8443550  -0.5759404   0.0815427   0.3835091   0.4290768
  -0.6265591   0.9427726  -0.9157655   0.1347185   0.2114104   0.2293299
   0.0301277  -0.2010998  -0.1663926  -0.2986650   0.2348961   0.2718194
   0.4147267  -0.1006396   0.6675685   0.0216968   0.1376628  -0.3212501
  -0.2876745  -0.1982208  -0.3894942  -0.1368546  -0.0324053   0.2548039
   0.7998236   0.3084565  -0.0801186  -0.4390653   0.7233169   0.2825844
  -0.2580377  -0.4732758   1.3111626  -0.0150211   0.1280608   0.2633334
  -0.0136343  -0.2156611   0.2866279  -0.0645159   0.2721040  -0.0378416
  -0.0092889   0.8815268  -0.5866776  -0.3346172   0.1571897   0.0784886
  -0.1474003   0.0131536  -0.5537842  -0.2711061  -0.0515318   0.0842013
  -0.2368314  -0.0401377  -0.0622769  -0.1372914   0.3956567   0.1342293
   0.1475050  -0.0071724   1.0392817  -0.2635538  -0.6651496   1.2462444
  -0.4511187   0.8686882   0.3204448  -0.0865705  -0.0594957  -0.1150577
   0.5677448  -0.0843088   1.6608821  -0.2652410  -0.9900805  -0.3602668
  -0.3433104  -0.1615826   1.4035575  -0.2568407   0.0731428  -0.0330514
  -0.2812005  -0.1849116   0.0311302  -0.1242332  -0.0149739  -0.2823390
  -0.5044093  -0.4232069   0.7190612   0.2397752  -0.1946031  -0.3918744
  -0.5610714  -0.4037384   0.3969221   0.0686272   0.5028143  -0.0867153
   0.3393543   1.4694107  -0.4222306  -0.8677683  -0.0481843  -0.3572076
   0.3178276  -0.3710880   0.2190838  -0.2858268   0.0382188   0.5293187
  -0.0345774  -1.3889691   0.4097705  -0.1033953   0.1784386  -0.1831530
   0.1839527   0.2044363   0.2017287  -0.6759322   0.0227980   0.9925801
   0.0686528  -0.5143330   0.3438315  -1.5384687   0.0509640  -0.8739235
   0.1265794  -0.1261152   0.1399554   0.0744058   0.2372115  -0.1558910
  -0.5589838  -0.6416060  -0.1676024   0.1923130  -0.8986918   0.4668174
   0.0019556  -0.0891725   0.0939539  -0.0091835  -1.2585087   0.5137331
   1.1103361  -0.3017215   1.2602306   0.0789597   0.2478024  -0.1556356
  -0.3632829   0.0391248  -0.1055680   0.0561194  -0.0424083   0.1032346
  -1.2062127  -0.5067422  -0.3454452   0.0125479   0.0359402   0.4109848
  -1.1598659  -1.2378318  -0.5975312   0.1313129   0.1545738  -0.0685726
  -0.9342063  -0.0749227  -0.7337549   0.5039517   1.2044379  -0.6826990
   0.2080001  -0.1800191  -0.1372396  -0.2705382   1.7852409  -0.5911892
   0.1453963   0.1731518   0.5270911   0.0522975   0.1187053  -0.0706416
   0.0276699  -0.3050873  -0.1835299   0.2679439   0.1872341   0.3651582
  -0.2331052  -0.1458190  -0.3510120   0.1654048   0.2555830  -0.0501178
  -0.3823585  -0.2070168  -0.2622434   0.2015936  -0.5890221  -0.3493999
  -0.1806707  -0.3157683   0.1936718   0.1325080   1.0277161  -0.7051958
   0.0986113  -0.1922655  -0.1913891   0.5049157  -1.5418881  -0.3348953
   0.8920718  -0.3313443   1.1031001  -0.2669129   0.1760419   0.0194684
  -1.0877372   0.3335810  -0.5158495   0.1835912   0.0995078   0.3365730
  -0.6192298  -0.2168001  -1.3638676   0.1285925  -0.4253742   0.7674269
  -0.4741457   0.4714855   0.8861061   0.2925807  -0.3587044   0.3735934
  -0.3140967   0.9989566   0.5369174   0.6638063  -0.1532058   0.6014247
   1.7584212  -1.0506812   0.9030986  -0.3876108  -0.2582265   0.3197260
  -0.0983732   0.1335838   0.0264207   0.5581307   0.0704821   0.0854403
   1.0652236   0.2653575  -0.4414960  -0.1000058   0.1056418  -0.0252556
  -0.0612678  -0.0396357  -0.2719774  -0.0941121  -0.2427867  -0.0876324
   0.0603392  -0.0112129   0.0430250  -0.3508934   0.2750417   0.5170104
   0.1590169   0.0315118   0.2305143   0.0221083   0.0180256   0.2594961
   0.2899313   0.3137652  -0.2378928  -0.1113837   0.2148574   0.3453524
   0.0311757   0.0205984  -0.1379763  -0.4800177  -0.4141389  -0.8523785
  -0.1243196  -0.0728480  -0.0079008   0.2145127   0.1117133   0.9636373
   0.0173848  -0.2835397  -0.2944516   0.1389598   0.3881032   0.1308986
   0.0175481  -0.1220848  -0.1321207   0.1088617  -0.1752502   0.1970223
   0.6387198  -0.1233874  -0.2031750   0.0987466   0.4242645  -0.2081381
   0.9992364  -0.0153884  -0.5678080  -0.4459744  -0.0053354   0.0721700
  -0.8049127  -0.3242611  -0.1494582   0.9550088   0.9961777  -0.7226247
  -0.1140776  -0.0396897  -0.1813034   0.2269526  -0.1766257  -0.2086697
   1.2780358  -1.1098958   0.2228078   0.1068351  -0.0716125   0.0709258
   0.4361805  -0.0107562  -0.4835397   0.6554835   0.1495961  -0.0467707
   0.2756093   0.3131299  -0.1678774  -0.6151861   1.1970140   0.1244691
   0.3995224  -0.3606142  -0.0674868  -0.0840335  -0.6857791  -0.5601250
   0.1120339  -0.4230951  -0.1512001   0.3036089  -1.0499465  -0.0696620
  -0.3044704   0.1885749   0.3578230   0.1356291  -0.2322514  -0.1349583
   0.1290243   0.0428582   0.0592191  -0.0129883   0.1077012   0.1930512
  -0.1926459  -0.0406838   0.0019820  -0.1783265   0.1443381   0.5163144
  -0.5777618   0.3323450   0.4630594   0.4566135  -0.0956274   0.0825834
  -1.1140232  -0.8642099   1.1695632  -0.0866064  -0.0175089  -0.1124189
  -0.7577734  -0.0732023  -0.2849093  -0.0945889   0.2237849  -0.4753102
   0.0387977  -0.0403633   0.1883783  -0.4788677   0.6374840  -0.1164288
   0.0119896   0.1221014  -0.4901271   0.0727101  -0.0681204   0.2214443
  -0.1371216   0.0475377  -0.1286430   0.2239034   0.0875272  -0.0237273
  -0.1742806   0.4509363   0.0155364  -0.9042549   0.5611184   0.9597834
   0.0930811   0.4799204   0.2487553  -0.1449032   0.0695738  -0.0027420
  -0.4274352  -0.0415720   0.0991889   0.6205320  -0.8487558   0.4151585
   0.5399562  -0.0151596   0.1491204  -0.5694317   1.2448775  -0.6250250
  -0.1860636   0.0968439  -0.1162484  -0.7188180   0.1245460  -1.2060684
  -0.7116861  -0.1963725   0.4093759  -0.2179105  -0.1328823   0.2434257
   0.0433561  -0.0889794  -0.1800623   0.7368033   0.1038678  -0.5872056
  -0.1728694   0.3505543   0.4391429   0.8238046  -1.3845184  -0.6933372
   0.1116801   0.1619165   0.0932811  -0.0423185  -0.1119882  -0.0538816
   0.1337274  -0.9225683   0.2445034  -0.1773879   0.0065323  -0.3414515
  -0.7984158  -0.6122080   0.4729466   0.3003868   0.0814669   0.0017831
   0.4034914   0.0474050   0.1125457  -0.0239444   0.4245411  -0.1313075
  -0.3801908  -0.3124387   0.2019301   0.0965189   0.3787130  -0.1734273
   0.4111227  -0.0647700  -0.3396604   0.0367082   0.0005305   0.0168134
   0.5133861   0.0282669  -0.0833538  -0.2776460  -0.1328623  -0.1819757
  -1.7412965  -0.2434780   0.1604040   0.1068205   0.0812564   0.1484331
   0.2327648  -0.0961362  -0.5158951   0.3674498   0.0361665  -0.2085729
   0.8075317  -1.8251626  -0.8384426  -0.0415908   0.0367938  -0.1809569
   0.7185264  -0.7445538   0.4494932  -0.0371319  -0.7588994  -0.8979150
   1.2921108  -0.9256389  -1.1702779  -0.1331217   0.2497529  -0.1568846
   0.0611044   0.4966728  -0.0997662  -0.0199344   0.1090414   0.0751046
   0.2127629   0.2178949  -0.1531689  -0.2107484   0.9426524   0.4636136
  -0.9667578  -0.6621421  -0.8961505  -0.2755189   0.2398284   0.3785510
  -0.7422052   1.1205248  -0.6381620  -1.0251020  -0.5267147   0.3814742
  -0.1377794   0.3749844   0.3216956  -0.8871611  -0.9339840   1.2814625
  -0.2891272  -0.3293748   0.0461177  -0.0374560  -0.2286591   0.3972813
  -0.3676754   0.5722082   0.7020413   0.0517484  -0.0792902   0.0253348
  -0.0520937   0.1530293  -0.1654196  -0.5849279  -0.0306397   0.1141450
  -0.6078773  -0.2327789  -0.1687512  -0.5166553   0.1451645  -0.1173641
   0.1517590  -0.4391104   0.4374865   0.2658681   0.1183438   0.0498659
   0.2880652   0.4223253   0.4492493   0.4185264  -0.4074452   0.1606673
  -0.1135953   0.1730357   0.5432846  -0.2899648  -0.2607773   0.1386404
  -0.8198481   0.3848187  -0.3514445   0.1433067   0.2556014  -0.0731811
  -0.1624212  -0.1226187  -0.5916012  -0.5603244   0.4214234   0.2960988
   0.1578131   0.3340803   0.0599696  -0.3709352  -0.3109011  -0.0546522
  -0.4235209   0.1706000   0.0799024  -0.1333743   0.2298316  -0.0811782
   0.3093823  -0.5054241  -0.2765151   0.0773599   0.3841707  -0.0585875
   0.2170552   0.1154293  -0.1126640  -0.0920482   0.0779238   0.4125427
  -0.1956176  -0.5919108   1.7246144   0.1306780  -0.3748260  -0.1276641
   0.1316501  -0.3982373   0.5489531  -0.6267960  -0.1935360  -0.0076626
  -0.7656441  -0.2423804  -0.8279970  -0.2727280   0.0686729   0.0970588
  -0.5101464  -0.3725743   0.3205987  -0.1290756  -0.0968161  -0.4918798
   0.1467911  -0.2465720   0.0608305  -0.0175802  -0.1073507  -0.2460144
  -0.0435443  -0.0151928  -1.0934986  -0.1187472  -0.2043502  -0.2308394
  -1.2139571   1.7262713   0.3429941   0.1089416  -0.2067929   0.0093261
   0.0554895  -0.2045663  -1.1635330   0.7334604   0.3909705   0.3499172
   0.2915577  -0.1786719   0.0306502   0.3211029  -0.0415643  -0.4729318
  -0.1124691  -0.0993410   0.0851146   0.3676397  -0.0904125  -0.0013149
   0.4263553  -0.1372643   0.0600955   0.4034692  -0.9440588   0.5372531
  -0.0534755   0.1895580  -0.0191390   0.7919511  -1.1618211   1.1436249
  -0.3901220  -0.2741193   0.3164394  -0.0606613   0.2651530  -0.2589256
   0.7187759   0.9654991   1.5217462   0.3420150  -0.1873811   0.1744887
  -0.4252531   0.3334300   0.1998959  -0.0645296  -0.4104345  -0.0397357
  -0.0719414   0.1520418  -0.0613875  -0.2052979  -0.1178152   0.0466315
   0.9442475   0.0129392  -0.3186487  -0.6001234  -0.1640795   1.5382993
   1.4066982   0.3551828   1.0991716   0.0672681   0.3500235  -0.2367099
  -0.2914783  -0.2658376   0.1115017   0.0109691  -0.4043028  -0.0081054
  -1.0749020   0.7840970   1.1030337   0.0281436   0.2986185  -0.0962680
   0.2412455   0.3361691  -0.1651890  -0.0170704  -0.3373203   0.1157382
  -0.0947420  -0.5468483  -0.1359065  -0.5545555  -0.0666266   0.2304746
   0.0998194  -0.0764614  -0.0323860  -0.0098009  -0.0559404  -0.0094502
  -0.0025105   0.2405323  -0.0925346  -0.0816555   0.1861544   0.4785938
  -0.0544456  -0.1543852  -0.1975217  -0.3433503   0.1097013   0.2091910
   0.1117335  -0.5352332  -0.8242082  -0.1206575   0.4510110   0.4568414
  -0.2589775  -0.4190830  -0.2487994  -0.1446074   0.4002944   0.0645258
   0.1345828   0.1377513  -0.1561264  -0.3216222   0.3688239   0.0096292
   0.1156149   0.1664993   0.0022794  -0.9582710  -0.0408193  -0.2900118
   0.2493509   0.0105603  -0.1051533   0.4569308  -0.3672043   0.2824884
   0.2669444   0.1881322   0.4282777  -0.0436890   0.2073181  -0.1934826
   0.2249110  -0.7189258  -0.9340086  -1.4794212   0.0233263  -0.4844406
   0.1027042   0.3920784  -0.2670682   0.2368511   0.0387304  -0.2537657
   0.0597202  -0.0490937   0.1440489   0.2913309   0.1088310  -0.1544652
  -0.1443571   0.1127907   0.0825909   0.1272969   0.0949827  -0.0906528
  -0.5259229   0.3409810   0.5672370  -0.1098140  -0.1351214  -0.1438638
  -0.2687943  -0.1684444   0.1834844   0.6626254  -0.1623812  -0.4201847
   0.1790115   0.0000022   1.0820647  -0.7340284   0.9969513   0.2483711
  -0.0217424  -0.3743069  -0.2738726  -0.3185451  -1.2622381  -0.2626907
   1.0735302  -0.8271885  -1.5054929  -0.1248036   0.0079205  -0.0984351
  -0.1574221   0.0228764  -0.2096614  -0.2844364  -0.5946365   0.0996793
  -0.6240344   0.1862628   0.1839707  -0.5543708  -0.0962021  -0.2747601
   0.3961264  -0.1882708   0.2294738   0.1502711  -0.1960522  -0.0132882
   0.0472886  -0.0420321   0.0149724  -0.0435114  -1.1434486   0.5777867
   0.0127865   0.2123441   0.4818365  -0.4930198  -0.8162874   1.3477490
  -0.4494661  -0.1288991  -0.0225815   0.8921166  -0.4680686   0.5462541
  -0.5646488  -0.3891925   0.1829799   0.2746964  -0.1634606  -0.2919888
  -0.0755209   0.0422817  -0.2032349  -0.2466976   0.0481339  -0.1934010
  -0.1774981  -0.0084260   0.2465084  -0.2123719  -0.3222652  -0.0198416
   0.2208568   0.0650038  -0.4592568   1.3060328  -0.8840712  -0.4289502
  -0.0517470  -0.6174484  -0.2618302   0.7968279  -0.3674690  -0.5581015
  -0.0561590  -0.1103203   0.2307930  -0.1814760   1.1278431  -0.8549974
  -0.0816535   0.2598665  -0.0596923   1.0597524   0.3725259   0.5945229
  -0.0425152   1.4534397   0.0980480  -0.0712934  -0.3648011   0.3544841
   0.3752052  -0.0141793   0.1300130  -0.6515118   0.0959754  -0.3935697
   0.1110963  -0.0797979  -1.2848939  -0.0129251   0.2923758   1.0232844
  -0.0530387  -0.0339867  -0.3206935  -0.0967072  -0.0856498   0.1647086
   0.0478848  -0.1946775  -0.2967601  -0.8807754   0.0916389  -0.0513433
  -0.1538534   0.3224684   0.0120129   0.7590581   0.6043594   0.9675927
  -0.0234805   0.0152289   0.0426859  -1.2123903  -0.0990501  -0.9145329
  -0.1219332  -0.2470368   0.0501138   0.7031729   0.8035379   0.1784437
  -1.0686443   0.6316788   0.3218020   0.0361492  -0.0895616   0.4523533
   0.1561894   0.0808610   0.2532865  -0.3978097  -0.7199134   0.1277504
  -0.0391068  -0.3797353   0.1846657  -0.1169394  -0.2570383   0.2390702
  -0.1761035   0.0828565   0.2387272  -0.6363706  -0.4785596   0.1679202
  -0.3330914   0.1614270   0.3302499   0.6892435   1.0188599  -0.5759099
   0.2010731   0.1333468   0.5800996   0.0131238   0.0790666  -0.1844442
   0.0215011  -0.2303974   0.2798409   0.4326003  -0.2796786  -0.1189058
   1.5007772  -0.1927163  -1.2742372  -0.0835077  -0.4675456  -0.0511958
  -0.0300856  -0.2353229   0.8498795  -0.2288078  -0.2114712  -0.0767532
  -0.1757701   0.2070177  -0.1488008   0.3259061   0.0025076   0.2217815
  -0.1159857   0.4547700  -0.0168720  -0.0614911   0.4388422  -0.0543781
   0.2125236   0.1721896   0.0089977   0.2391794   0.1563196  -0.0833559
   0.1029485   0.2719283   0.2328302  -0.2002081  -0.2597590  -0.6062351
  -0.2858087  -1.0324171  -0.5584504   0.0226208  -0.0365638   0.0103473
  -0.3877352  -0.4702834  -0.7340951   0.1479118   0.2724362   0.0096096
   0.0776698   0.8046727  -0.3808044   0.4338858  -0.2609504  -1.8694307
  -0.2520550  -0.0651422  -0.3222600  -0.0083524  -0.1498942  -0.0738759
   0.3900846  -0.6992839   0.0682757   0.2191714   0.3914433  -0.0864541
  -0.2525237  -0.9135535   0.1329154  -0.2920620  -0.5661214   0.0344400
   0.1852492  -0.0488775   0.1794177   0.2849221  -0.2284724   0.3301946
   0.0040864  -1.4220100  -0.3848567   0.0451200  -0.0532378   0.2683260
   0.3421922  -0.2418380  -0.0156905  -0.0862285  -0.0831504   0.1790642
   1.0769736  -0.1056286  -1.1925939  -0.4345775   0.4532329   0.2695530
   0.0388271   0.1855808  -0.3852698   0.3647502  -0.3507126  -0.3804087
  -0.6937657   0.6418921  -0.5500542  -0.1984425   0.1471486  -0.1450865
   0.3668303  -0.9439443   0.2302516   0.2663331  -0.0156515  -0.0002348
  -0.0009177  -0.0515029   0.1448633   0.2898373  -0.1927713  -0.3956512
  -0.2832286   0.2720235   0.2041321   0.3100599   0.0150596  -0.2201344
  -0.4758667   2.9237609  -0.7269113  -0.5014890   0.9412619  -0.3510798
  -0.4194863   0.0329854   0.1910287  -0.0560600   0.2645664   0.1026530
   0.3556640  -0.2927756   0.1137177   0.1455824   0.1993912   0.0225673
  -0.2111877  -0.3555480   0.8344578  -0.1443309  -0.1024804   0.0440881
  -0.1969079   0.5073533  -0.9148407   0.0419024  -0.0777443   0.5615670
   1.0109981   0.1305383  -1.6312034  -0.5386192   1.0630398  -0.5161098
   0.1044807   0.1896093   0.3273479  -0.1110757   0.8432410  -0.1384409
   0.0714180   0.4439275   0.2218533  -0.0007746  -0.0199003   0.0005790
   0.3275336   0.1200029  -0.9546324   0.1445047   0.7374257   0.0988439
  -0.0291360  -0.0310343   0.4576457   0.2274304   0.1786766  -0.7273360
  -1.1553186   0.4705096  -0.8674190  -0.1540296   0.2094344   0.1699731
  -1.2681957   1.0797751   0.0805386  -0.4308231  -0.3108931  -0.3284570
  -1.0609761  -0.0131715   1.6263426  -0.1415508   0.3053861   0.4397669
   0.1345955  -0.2638515  -0.3415807  -0.0184452  -0.2169733  -0.3324798
  -0.9623646  -0.2204386   0.4166103   0.3484184  -0.0381540   0.0090343
  -0.1005568  -1.2401537   0.7115510  -0.0487294  -0.0461517   0.2261088
  -0.1250572   0.2687869   1.0380650  -0.8171920   1.3146768   0.0159885
   0.1056654  -0.1755750   0.1132157  -0.5596559   0.2656540   0.3593278
  -0.2859464  -0.2221702   0.0196675   0.0448934  -0.2800364   0.2093759
   0.0701308  -0.1143641  -0.3961114  -0.1006358   0.0542412  -0.1853968
   0.3193181  -0.1101357  -0.0849371  -0.1094632   0.2364132   0.1144995
  -0.2378801   0.0025196  -0.0878221  -0.4700106  -0.8767470   0.6462895
   0.2631882   0.2968430   0.4509730   0.5116813  -0.5147287   0.6472688
   0.9707912  -0.0010866   0.2346767  -0.0337064   0.7099483   0.5149152
  -0.1668538   0.2765256  -0.1454856   0.2877920  -0.9689598   0.9329101
   0.6813836   0.4415451  -0.4001661  -0.0126608   0.2028560   0.4538999
  -1.0135445  -0.0391375  -0.5169348   0.1872164  -0.4310942   1.4921506
   0.4175109  -0.5742663   1.2388334  -0.2517264  -0.2392835   0.2308903
  -0.1334991   0.2244806  -0.1470512   0.5888842  -0.0831428  -0.3655072
   0.3603680   0.2014238   1.1867881  -0.1341290   0.1545724  -0.1109219
  -0.2235818  -0.0374936   0.2858930  -0.2108513  -0.0722268  -0.3713556
  -0.2457830   0.0246519  -0.3608570   1.0101788   0.4125245   1.3497324
   0.0531642   0.1365913  -0.5433756  -0.4359983   0.3480719   0.1331663
   0.3948500   0.1700128   0.0108668   0.1693197   0.0064437  -0.0611317
  -0.3392826   0.2987128   0.3079268  -0.7452252   0.5891613   1.3641756
  -0.0431808   0.1310628  -0.0107875  -0.5632025   0.4466545  -0.2818936
  -0.5864418   0.0898450  -0.1218056   0.1891112  -0.2689226  -0.1332806
   1.4295013   0.5103931   1.2429948   0.1700847  -0.2749988  -0.1396947
  -0.3391560  -0.2302823   0.1964666   0.4341484  -0.2991105   0.6477833
   0.2761686  -0.1073455  -0.0013411   0.3411541  -0.0896904  -0.3949781
   0.3194899   0.2939320   0.2289864   0.0011261  -0.3119305   0.0295023
  -0.0867253   1.7927984   1.7246788  -0.1120274   0.2035873  -0.1131689
   0.4505639  -0.9577735  -0.4526207  -0.0897147  -0.2663811  -0.0595231
   0.7408728  -0.5142318  -0.0657622   0.1829244  -0.1314032   0.2477084
  -0.0168606   0.5008445   0.5823021   0.6081406  -0.3735937   0.4289176
   0.1977326  -0.0554371   0.4716196  -0.0970461  -0.2690443  -0.1671677
   0.4657825   0.2567092  -1.6703853   0.1906940   0.4276676  -0.2200350
   1.1424010  -0.5029238  -0.0289885   0.3268208  -0.2914440  -0.0374268
   0.3702598   0.1663718  -0.0233229  -0.0416615   0.2016029   0.0743178
   0.0918555  -0.1191401   0.0463869  -0.0614440   0.1080181   0.0460907
   0.1234461  -0.1944100   0.1794364   0.2297045  -0.0421614  -0.1377358
  -0.3230867  -0.4751202  -0.6765050   0.5570433  -0.3664037   0.4889270
  -0.1958890   0.1417763   0.2750116   0.2516702  -0.6306460   0.4051456
   0.0266870   0.5517811  -0.4649085  -0.2752224  -0.0688424   0.0191238
   0.1322499  -0.0811838   0.0848763   0.4017936  -0.6466627  -0.9368945
   0.2849686  -1.1744887   0.1941425   0.8589556   0.4560415   0.9983881
   0.1505038  -0.0511473   0.1306282   0.1117511  -0.0001560  -0.1889335
   0.1556488   0.0904303  -0.0725681   0.6035961  -1.1395368  -1.3292683
  -0.0954177   0.1787055   0.1146484  -0.3289443   0.7706131   0.3486787
  -0.0377325  -0.3118573  -0.3491644  -0.5371748  -0.3628598  -0.4745208
  -0.1568227   0.4377572   0.1922705  -0.2222637   0.1148458   0.0080728
  -0.6379482  -1.2484153  -1.2494120   0.0366065  -1.1139837  -0.4901057
  -0.0433657  -0.1322807   0.1417178   0.1190110   0.2805339  -0.2362734
  -0.2998973   1.7025897   0.1330833  -0.3606611   1.0131086  -1.1728871
  -0.5670096  -0.4946311  -0.4474113  -0.2053312  -0.0521101   0.0647542
   0.0237153  -0.1182714  -0.1492071  -0.3183215  -0.0932439   0.0378727
  -0.4594918   0.5763644   0.1576897   0.4489087   0.1604096   0.1929738
   0.0734300   1.5470134   0.3476854  -0.2783897   0.1949708  -0.2580766
  -0.2941496  -0.3423344  -1.2688964   0.0993106   0.1227730   0.2971668
   0.1213548   0.4555135  -0.3731368  -0.3487792   0.8424711   0.3021729
  -0.1003533   0.8040101  -0.1037549   0.1842212   0.1173330   0.1951384
  -1.2563030  -0.3086639  -0.0251702  -0.2417802   0.2949021  -0.2849064
   0.2480833  -0.2935805  -0.0212537   0.1081430   0.1475857  -0.3398244
   0.6844694  -0.6070228   0.3247629  -0.2408263  -0.0540482  -0.5204274
  -0.1119609   0.6055051  -0.1605865  -0.1613703  -0.4382525   0.0316938
  -0.3440950   0.2637052  -0.9981155  -0.1828109  -0.2621746   0.0285296
  -0.3156857   0.5995630  -0.1325849  -0.3966155  -0.7395179  -0.5385007
  -0.6439867  -0.5022917   0.2949562  -0.3705218   0.1584218  -0.5162944
   1.6670389   1.4141929  -0.3811876  -0.6041177  -0.2445775  -0.8396253
  -0.5025509   0.0437378  -0.3142306   0.2572654  -0.2063538   0.2130711
  -0.1978804   0.0060583  -0.0637252   0.0295975  -0.2027998   0.4157665
  -1.2522498  -2.6205792  -0.4837318   0.0673371  -0.0621340   0.1907096
  -0.0127536   0.0556646   0.1675343  -0.1186606   0.3815946   0.0838702
  -0.3475503   0.2075412   1.1779953   0.2052342   0.9382827   0.0030729
   0.3154257   0.1014234   0.0682359   0.1740258  -0.3003458   2.4754288
   1.0240517   0.1225841  -0.0172611   0.0595783   0.2549928  -0.0282110
  -0.3084949  -0.3389371   0.0282196   0.2650304   0.1017015   0.2617101
  -0.9629366  -0.0426487   0.2371444   0.1543983  -0.0690525   0.2752069
  -0.0092975  -0.4513995   0.1605539   0.0344768   0.0880437   0.1503927
   0.1767835   0.0268420  -0.2518420  -0.4769457  -0.2785868  -0.0610075
  -0.3192487   0.0252314  -0.1980957   0.6819758  -0.2813165   0.6341416
  -0.1565351  -0.1058129   0.0147502  -0.5336542  -0.3772946  -0.2959359
   0.0393988  -0.0595217   0.1272212  -0.2886196   0.3720847   0.1487263
  -0.5018103   0.5231168   1.4058974  -0.4263591   0.2471180   0.5074182
   0.1101808  -0.4837867   0.0213674   0.2049529  -0.9547734  -0.0103041
  -0.1800667   0.0153835   0.0640561   0.1482405  -0.0841027   0.1768206
  -0.5065004   0.1360672   0.0950567   0.3830915   0.9537044  -0.1564446
  -0.0571096   0.0332445   0.2618010   0.4497144   0.4936248   0.0441164
  -0.1951969   0.1761414  -0.1378095  -0.3173854  -0.5912586   0.8876130
  -2.0891706   0.2847806   0.7635548  -0.0054496   0.0919145   0.0353058
  -0.0071445  -0.2034422   0.0695029  -0.0353873  -0.0249853  -0.2700835
  -0.2381939  -0.4025661   0.2032949   0.0595647   0.0465126  -0.0514160
  -0.0720389  -0.1110807  -0.0843283  -0.2678775   0.2526891  -0.1407199
   0.0132024   0.1227889   0.2358044   1.1605314  -0.8398522  -0.5562048
  -0.1879016   0.1709870  -0.2772711  -0.6348997   0.5861162  -0.4200163
  -0.2467742   0.0184183  -0.1063767   1.2279206   0.0277293  -0.2701900
   0.9371690   0.0389131   0.0271801   0.5955537  -0.8564928   0.1166785
  -0.2401849  -0.1608449  -0.0837225   0.0312102  -0.8194135  -0.4859401
   0.4582956  -0.4670612   0.8089897  -0.2432760  -0.2070037   0.5659318
  -0.0540065   0.3973759  -0.1676824   0.2018422   0.0668818  -0.2080791
  -0.3428517   0.1147068   0.0712580   0.0181721  -0.0463958  -0.0781286
   0.7709067  -0.4771544  -0.6754279  -1.2091140  -0.7226516   0.1151059
  -0.3051167  -0.0872775   0.0555062  -0.1372945  -0.2325538  -0.3753737
  -0.1423567  -0.0477359  -0.0408634   0.0874869   0.0926242   0.0940304
  -0.2405734   0.7920069   1.5444528  -0.3191665   0.1447351   0.0579528
  -0.0963578  -0.0835520  -0.1830064   0.7606119  -0.6290991  -0.9044208
   0.0445149   0.0348643  -0.3697028  -0.0346344   0.2406179  -0.0358364
  -0.1281342  -0.3212236  -0.0232795   0.1546772  -0.8345947  -0.4270140
  -0.2631891   0.2241349   0.2784521  -0.5591972   1.5087866   1.1888611
  -0.0687454   0.1417698  -0.0852712   0.2579519   1.3275957  -0.4249939
   0.2518704   0.0571170   0.1749997  -0.2392701   0.0316569  -0.1319059
  -0.3158407  -0.2571062  -0.2713438   0.2163280   1.2230505   1.9315744
  -0.1716878  -0.0047059  -0.1864797   0.3710107   0.0852896   0.0952507
   0.2700241   0.2386447   0.3928618   0.5365286   0.1840870   0.6731664
   1.2592591  -0.9539735   0.1779958  -0.2153157  -0.0471503   0.2764638
  -0.1664613   0.4007390   0.1771226  -0.0448142   0.0462067  -0.1012287
  -0.7188273   0.3252028   0.2065403   0.2150640  -0.1830669  -0.1581198
   0.1704501  -0.4188932  -1.8739674  -0.2440985  -0.1596536   0.1078053
   0.0700769   0.8683536  -0.0155899  -0.3171752   0.4236050  -0.2793736
  -0.0029244   0.1608962   0.1314238   0.3176840   0.3151203  -0.0994158
   0.3855472  -0.0627122   0.1386298   0.0396022   0.0709668   0.0901070
   0.1796235   0.2069969  -0.2320068   0.0967430   0.3027687   0.1049706
  -0.7403553  -0.9721736   0.6467577  -0.4797509   0.0172982  -0.0634774
  -1.4125818  -1.7983190   0.8617015   0.1616595   0.2433142   0.1122420
   0.1841061  -0.1489827   0.0274284  -0.0183817   0.1428479   0.4997542
   0.1258678  -0.0507575   0.2758010  -0.2013967   0.8963846   0.4747573
  -0.3598863  -1.2842850   0.2187614  -0.2845033  -0.2232569   0.2988494
  -0.1363097  -0.1907706   0.0438642  -0.0297387   0.0457026  -0.0028136
  -0.8068099  -1.1808742  -1.1975234   0.0711042  -0.1586033   0.5906898
   0.1942103   0.1045670  -0.2441207   0.1056044  -0.3041585   0.2306308
  -0.2620583   0.1197727  -0.1922541   0.0753123  -0.0828165  -0.1983316
  -0.2991985   0.0243558  -0.0389505   1.1010146   1.1415496  -0.1173390
   0.0997403  -0.2513179   0.5198966   0.9028742  -0.3769304   0.9311912
   0.1811325  -0.0742035  -0.4049796  -0.5054578  -0.0106336   0.3034384
  -0.0903544  -0.2718218   0.4092471  -0.9763780   0.2146257  -0.9831092
   0.1143863   0.1991191   0.0249019   1.1195068  -0.6758418  -0.0823620
  -0.0873010   1.1674360  -0.5546094  -0.0792287  -0.2123513  -0.0397761
  -0.3908490   0.1673290  -0.1000935  -0.1246479  -0.5031622  -0.3428265
  -0.0016118   0.6932773   0.8261443   0.0410979  -0.0749636  -0.1472491
  -0.1141271   0.1286524   0.3138074  -0.0438259   0.1710879   0.2758305
  -0.3907791   0.3722560  -0.4568085   0.0437250  -0.0412203   0.0664068
  -0.1492323  -1.9997720   0.2995084   0.1582427   0.3865893   0.0138920
  -0.1491123  -0.0475001  -0.0524899   0.8387525  -0.8897593  -1.4382045
  -0.1242180   0.1153491  -0.2514829   0.2679206   0.3163737   0.6312158
   0.1764629  -0.3048595  -0.8980745  -0.4784295   0.0369332  -0.2659605
  -0.6778600  -0.4920764  -0.2950427   1.0173690   1.2405997   0.1442731
  -0.2516191  -0.1114178   0.0748360  -0.0696530   0.1219576   0.2190031
   0.3290472  -0.1148389   0.0947012  -0.0615338  -0.2739225   0.0725828
  -0.2967725  -0.2672649   0.2346392   0.3924255  -0.8542954  -0.3015506
   0.1432534   0.2711567   0.4303336  -0.2779982   0.1413706   0.7639176
   0.2133585  -0.1762721   0.2627648  -0.1091158  -0.2791564   0.0951341
   0.0812896   0.1714480  -0.0374481   0.3196907   0.1575490  -0.0776365
  -0.9785973  -0.1478649  -1.5498114   0.1532131   0.0607107   0.4113471
   0.1167273  -0.3170635   0.1964425  -0.2007157   0.1596975   0.1408703
  -0.0055404   0.1529785   0.8304492   0.1294282   0.0265814   0.7588531
   0.2613067  -0.0085480  -0.1016221  -0.2866024  -0.2767779   0.0587148
  -0.0158078   0.1452364   0.0137495   0.6732485   0.5668598  -0.9461576
  -0.1801113   0.2210652   0.4729132  -0.4159779  -0.8487865  -0.8078841
   0.0506721   0.1038428  -0.1701604   0.0741533  -0.6218574   0.3738517
   0.0169555   0.3142959  -0.4001650   0.2051300  -0.0542179   0.1820288
  -0.1691541   0.3053063  -0.1429017  -0.2101624   0.7518388  -0.6558945
  -0.0132181  -0.0700938   0.0021777   0.3333412  -0.8721871  -1.7171775
   0.5325469   0.4823228   0.3648437   0.3605013   0.9939950  -0.1046699
   0.0744533   0.3770212   0.0134355   0.9546435  -0.3087245   0.8259211
   0.2531690   0.2989916  -0.7685601   0.1186580  -0.2539225   1.2459930
  -0.3433002   0.4519425   0.2743422  -0.3051877  -0.4657140  -0.4988451
  -0.2828508   0.6335451   0.2623326  -0.1880413   0.4977072  -0.9365491
   0.2164050   0.0845218  -0.0203054   0.2424873  -0.0813104  -0.1691020
  -0.0892450   0.3870335  -0.1430940   0.0545718   0.1871219  -0.0483736
  -0.0138707  -0.1683330   0.4808455  -0.3333960   0.3632581   0.4041438
   0.1587768  -0.0081282   0.0148079   0.5198134  -0.1672512   1.5929923
   0.4306983   0.0523023  -0.0524097   0.2159551   0.1286367  -0.0249436
  -0.3226141  -0.0784160   0.1852752   0.7510416  -0.0375799  -0.6323036
   0.0029005   0.0234441   0.0657132   1.5570761   0.7008154   0.5796928
   0.0752881   0.0124558  -0.3430096   0.1125325   0.0595246   0.0634039
   0.6780935   0.1529989  -0.1680748  -0.2794079  -0.0765269  -0.1638022
   0.5229471  -0.6283384   0.2572533  -0.0102266   0.1621465  -0.2008507
  -0.6812313   0.3416628   0.9670954   0.4163983  -0.0097002  -0.1569682
  -0.0470901   0.0712204   0.1077178  -0.2939671   0.0842252   0.0852671
   0.3777981  -1.2080812   0.6725995   0.0256669  -0.0568875   0.1557251
   0.5870100  -0.2994405  -0.9445028   0.2024510   0.1166188   0.0883175
   0.8168563  -0.7378646  -0.5133510   0.3277793  -0.3905930  -0.0587811
   0.3412208   0.0840485   0.0642136   0.0316371   0.1651460   0.2974610
  -0.1649311  -0.3941749   0.3289731   0.8404276  -0.0316515  -0.6299086
  -0.4196483  -0.0511251   0.8414714  -0.0526235  -0.6811145   0.1764369
   0.0125939   0.1235503  -0.2602252  -1.4763073  -0.0537701  -0.8497548
  -0.2858687  -0.3980986  -0.2453276   0.0138926   0.9529052  -0.2257629
  -0.0514831  -0.4789316   0.1155408  -0.0694073   0.2374626  -0.1730978
  -0.1237303  -0.2646738   0.0897783  -1.1989668   0.7631590  -0.2794409
   0.2734038  -0.1774687  -0.0180954   0.1065736   0.1516995   0.1380723
   0.1391848   0.1548175   0.2690025   1.6360159   2.0011019  -0.4885743
  -0.4696485   0.2128522   0.6688565  -0.3192130  -0.1959157  -0.1862867
  -0.0125108  -0.2137938   0.1580170  -0.5302354   0.7918681   0.2239931
  -0.0350216  -0.0739610  -0.1373013   0.1829168  -0.0200633  -0.0076141
   0.0856206  -0.1516007   0.0658469  -0.0592390  -0.1825985   0.0407700
  -0.2625549   0.3571398   0.3319457  -0.5058691  -0.1741262  -0.0793700
  -0.5934926   0.1305312   0.0621289  -0.2103315   0.3600562   0.1183046
  -0.2245316   0.3238638   0.3016674   0.2058368  -0.0982518   0.2623589
   0.3559783  -0.5036992  -1.0364601   0.5920834  -0.7373522   0.8766548
   0.0747674   0.1216783   0.2330957  -0.0436315   0.5891917  -1.0462784
   0.0284388   0.9236650  -0.2737473   0.2295675   0.0764749   0.2429542
   0.3295400   0.6233091   0.1866538  -0.1204728  -0.0892387   0.4282763
  -0.2934938  -0.1335180  -0.3257211  -0.1276982   0.0474698   0.3677242
   0.1048635   0.2921694  -0.4778816   0.1527651  -0.0516804  -0.2389432
  -0.3998545  -0.2798092  -0.0677181   0.9201496  -0.4018195  -1.7501263
  -0.1667933   0.6695625  -0.7530560  -0.4489890  -0.0210522   0.3492711
   0.2470363   0.1422422   0.1491184   0.0194893   0.0189867  -0.1677111
  -0.3633344   0.8387089  -0.6271025   0.1458939  -0.0870398  -0.0342061
  -0.3992936  -1.2159651   1.2902345  -0.3714325  -0.0138920   0.1492858
   1.2715927  -1.1866220  -0.1146769  -0.2716042   0.0194388   0.1177505
   0.1815576   0.2888445   0.0280403  -0.1879677   0.0754773   0.2000480
  -0.2191572   0.0419482  -0.2000826  -0.0989445  -0.1582668   0.1082963
   0.3998683  -0.7533691   0.0561904  -0.1470193  -0.0843077   0.2080965
   0.2532850   0.0436159   0.0208408   0.4016833   0.2139020  -0.1431985
  -0.5218312   0.1147957  -1.0499500  -0.0679015   0.0235296   0.0819357
  -0.3778312  -0.4770066  -0.1489956  -0.0553744   0.3781392   0.0168926
  -1.1296969   1.0917973   0.6252653  -0.4376005   0.0873335   0.0242888
  -0.9533405   0.1992053   0.2149402  -0.1840209   0.5669627   0.0581238
   0.7599815   0.2556691  -0.6565730  -0.0369781  -0.1361233   0.3594273
   0.1253015   0.3396921   0.2062908   0.2625538  -0.1060668   0.0686485
  -0.0497771   0.3292217   0.2635216  -0.0233478  -0.0392117  -0.0160295
   0.0390479  -0.5067109   0.6622182   0.0102925   0.0364270   0.3905220
  -0.7699662  -0.2413082   0.4656188   0.1332321   0.0670525   0.2245329
   0.2134290   0.0570345  -0.5290444  -1.0313206   0.1759648  -0.9643620
   0.3856543   0.6367524   0.2862098  -0.2471104  -0.1091784   0.0402257
  -0.0459603  -0.6152265   0.1051366   0.1373637   0.1363003   0.8486888
  -0.9166661   1.3542244   0.4965477   0.0780539   0.4611655   0.1811614
  -0.1389583  -0.3055641  -0.1282184  -0.1420621   0.1980890  -0.2016573
  -0.6324282   0.2144222  -0.5633700  -0.1373155  -0.1276518  -0.2754003
   0.7645913  -0.8695517   1.3815915  -0.0483614  -0.0850914  -0.0755918
   0.5995257   0.6194486  -0.6502180   0.1725450   1.0365195   0.1034468
  -0.0770864   0.0849754  -0.0692957   0.1855084  -1.0264616  -0.9813041
   0.0560208  -0.0108569  -0.1837621  -0.6082112   1.3851162   1.2460120
   0.7610400   0.0148192   1.0378242   0.5047336   0.1602659  -0.4615854
   0.1144701  -0.1533723   0.1347904   0.0076090  -0.4477752   0.0963265
  -0.3358316   0.2553572   0.0702297   0.2302156  -0.8386217  -0.2564227
  -0.1416541  -0.2667454   0.1578623  -0.0801826  -0.0249352  -0.0992368
  -0.2694922  -0.4546277  -0.2252933  -0.6110525   0.4894529  -0.1823264
  -0.0444838  -0.3483019  -0.0496120  -0.6015756   1.3486000  -0.3810278
   0.1723413   0.0699299  -0.0335456   0.2499650   0.3117586  -0.0279054
   0.8487276   0.0390051   0.3882993   0.0703859  -0.2323092  -0.0299275
  -0.9884184  -0.2005634  -0.4126941  -0.9207122  -1.9842601  -0.4818117
   0.3229065   0.0250047   0.0821052  -0.3072377  -1.3056692   0.9431802
  -0.4344146   0.4490344   0.8269268  -0.1437365   0.2288154  -0.2051180
  -0.2938216   0.2300577   1.5728827   0.2329809   0.2123023   0.5188938
   0.1870866  -0.0933569  -0.0281045  -0.3185915  -0.0668489   0.5274829
  -0.8766133   0.3749691  -0.1153100   0.1268255   0.0889851  -0.6141774
   0.0570408  -0.1474956  -0.8950873  -0.4306249   1.3556008  -0.1016044
  -0.0388416  -0.2801092  -0.0138071  -0.0784613  -0.1718747  -0.0489390
   0.0931405   0.1883260   0.2676653  -0.2431393   0.2119742   0.3770563
  -1.3614572  -1.0335259  -0.2193806  -0.8817768   0.5726039  -0.0276237
   0.2599410   0.2696511  -0.2184267   0.7982404   0.0551532   0.2708129
   0.8452422   0.8741182   0.3702583  -0.4206761  -0.2408900   0.0803559
  -0.2538808   0.4442201   0.7173901   0.1671524   1.7722751   0.2759153
  -0.0595207   0.1111732   0.0049923   0.7785421   0.7534005   0.0110723
  -0.3910669  -0.0967214   0.0660304   0.0788232  -0.0886218  -0.1224187
   0.1162499  -0.0073997   0.3069213   0.7044453  -0.2127773   0.2976244
   0.1682990  -0.3253457  -0.2076751  -0.4691628   0.9837981  -0.0959106
  -0.2104287  -0.4118167   0.0241087  -0.6688900  -0.7051587  -0.4085116
  -0.2257626  -0.6526299   0.2796993   0.1673323   0.1215953  -0.0203252
   0.2644635  -0.2658560   0.1814558  -0.1099020  -0.1663609   0.0177147
  -0.0868339  -0.4123864   0.1367752  -0.1542576  -0.0211663  -0.1803244
  -0.4101576   0.1882735   0.2314525   0.6506297   0.0588472  -0.0474414
   0.4604138  -0.0555024  -0.1293627  -0.3039415   0.1547709   0.7414023
  -0.2534308  -0.2335734  -0.1749523   0.7687401  -0.0199044   0.3479954
   0.5792878   0.5712642   0.0948591  -0.0887115   0.1059620  -0.0676513
  -1.1272234  -0.4600080  -0.3115706   0.1603161  -0.2181286   0.3766241
   0.2731558  -0.2361953   0.3132129   0.3164255  -1.1217878  -1.4448097
   0.6498565   0.0631717   0.6308280  -0.0186927  -0.0389807   0.4239972
   0.0772101  -0.4705625   0.5492519   1.1092211  -0.5321583  -0.4971016
  -0.0364029  -0.0104109   0.3803081   0.1143869   0.1458334   0.2200665
   0.1573179   0.0514028  -0.1709859  -0.0971342  -0.0927275  -0.1424949
   0.3622239   0.1115538   0.1139313   0.1187629  -0.0419105  -0.0934827
   0.1574315  -0.9786817   0.9698122   0.0621051  -0.1722679  -0.3139125
   1.1145161  -0.2010421   0.7662684   0.2946723  -1.9283701  -0.7321651
  -0.2162184  -0.0338424  -0.2254307  -0.2621993  -0.2173078  -0.1453040
  -0.2383135  -0.3726472   0.1351658   0.3828803  -0.0001596   0.1326724
   0.0131549  -0.6990396  -0.1019413   0.6875026   0.5313173  -0.1338225
  -0.0169225  -0.1117442  -0.5058758   1.1438776  -0.5857010   0.3520882
  -0.2259665  -0.0656607  -0.1167502  -0.4369375  -0.5118905   0.4774474
  -0.2264110  -0.3025996   0.4468418   0.0650368  -0.1030692   0.2801967
  -0.0679532   0.3461895   0.2468274  -0.1572228  -0.1298085  -0.1118884
  -0.0588176  -0.4405752   0.2409506  -0.1926119  -0.6075080   0.4284011
   0.5722251  -0.7250227   0.1161731   0.3272798   0.0945464  -0.0225037
  -1.0153215  -0.6178550  -1.0677582   0.5345427   0.0311276  -0.8303123
  -0.4698161  -0.1046357   0.6459094  -0.0621994  -0.1183930  -0.0145400
   0.0030750  -0.1296698  -0.0293358   0.1355700  -0.1761522  -0.2997345
   0.1385018  -0.1811033   0.0428215   0.1087298   0.2829596   0.1341134
  -0.6309345  -0.1077115  -0.9844220  -0.1410748   0.1489236  -0.1666068
   0.5682215  -0.1371617   0.2472929   0.1973971   0.2658440   0.1348517
   0.1991281   0.2494121   0.2827817   1.2668127   0.5670279   0.0093813
   0.7227337   0.2656014  -0.0847252   0.1705685   0.2038333  -0.0574592
  -0.9602933  -0.4807014  -0.1884066   0.0164528   0.1787167   0.1375849
   0.0404452  -0.4004998  -0.0122010   0.1763057   0.4028584   0.2159072
   0.6745839   0.6340917   0.3546849   0.1245300  -0.1633158  -0.2048958
  -0.2082261   0.2459399  -0.4041509   0.2092908   0.0327441   0.2434971
   0.9559876  -0.3089484   0.1606190  -0.1342993   0.1390564   0.4475656
   0.1968379  -0.0603884  -0.2994170  -0.3410298   0.2808830  -1.8293137
  -0.5436069  -0.7577033  -0.3429895   0.1327132   0.1181943   0.2143639
   1.3531063   0.0951665  -0.4398168  -0.7648261  -0.0535781   0.5643778
  -0.2214818   0.0475178   0.0433771  -0.0379671   1.7762462  -1.3385529
   0.9268118  -0.1868786   0.6086897   0.2116981  -0.2240392  -0.1589624
   0.4340803   0.0757784  -0.7587417   0.5819385   0.4474099   0.4621786
   1.2900369   1.3248403  -1.7470144  -0.4969404   0.1582163  -0.0291296
  -0.3878247  -0.0530416  -0.1228146   0.0607977  -0.1320324  -0.2124510
  -0.0515490   0.0426763   0.4399844  -0.1902538  -0.1454943   0.1177378
   0.4263269  -1.0434634   0.1284836   0.3372163   0.0245435   0.2257130
  -1.7541869  -0.9972321   1.1741729  -0.4640777  -0.4937348  -0.4312416
  -0.3170193   0.2653226  -0.0873942   0.1735816   0.0996360  -0.2912929
  -0.3058192  -0.1857946  -0.3805134  -0.8874299   0.0486716  -0.7806282
   0.1585687   0.4206568   0.0150658  -0.2720886   0.1930495   0.0805569
   0.0046501  -0.0887693   0.0945550   0.0034927   0.2094517  -0.3083262
  -0.1821645   1.1925835  -0.3732671   0.0690372  -0.1088879   0.3150542
  -0.3757403   0.2735813   0.6312490  -0.2567350   0.0216541   0.0595624
  -0.2358179   0.4039313  -0.3747147  -0.0530689   0.0278617   0.0428432
   0.7812780   0.2074411  -0.3073506  -2.4881929  -0.4271229   0.3293976
   0.2144040  -0.1984635  -0.1322487  -0.0370556  -0.2179588  -0.1398964
  -0.4607676   0.0045129   0.8596203  -0.1901724   0.0690999   0.3640972
  -0.2835948   0.2599598  -0.1081475  -0.1972816   0.1904405   0.0154416
   1.0010975   0.4437230   0.2015656   0.3376707  -0.2528812   0.1125877
   0.3376830   0.0894493  -0.2769957  -0.2295230   0.0764072  -0.0290203
   0.9238935  -0.3293380   0.0542218  -0.3631305   0.4046882  -1.0461057
  -0.2777433  -0.0355635  -0.0732649   0.0089640   0.4569792   0.1883221
  -0.9680625  -0.1458720   0.1736269   0.1015268  -0.0396575   0.3253854
  -0.1108384  -0.1209727   0.2982774  -0.0755535   0.1285527   0.0807576
   0.2677193   0.1018020  -0.1627669  -0.2599262  -0.1381437  -0.0577671
   0.3219922  -0.2543829   0.0868076   0.3537037  -0.3965000   0.3835300
   0.0214195   0.0985806  -0.3644901  -0.0161998  -0.9936824  -0.5401765
  -0.2850979  -0.3366030  -0.2331742  -0.5340431  -0.6488992  -0.2418848
  -0.0571890  -0.9159655  -0.8376607   0.0760758   0.0316333   0.0026013
   0.0783481   0.1021352  -0.0040288   0.5832918  -0.1105937  -0.1702359
   0.4551879  -0.4484650   0.4581482   1.1126782   0.3127503  -0.1302770
  -0.3911573   0.5138455   0.4653466  -0.2115731  -0.3231942   0.1986116
  -0.3778131   0.6201377  -0.0669260  -0.3964191  -0.2903023   0.0234717
  -0.5715402  -0.5421368   0.1255519   0.1708963   0.2943084   0.0459415
  -0.1934145  -0.1028866   0.2297810  -0.0876004   0.2412476   0.1297828
  -0.3829414  -0.1101509  -0.0526266   0.0185580  -0.1734445  -0.5715731
  -1.2206269   0.3786430  -0.2966702  -0.6658797   1.8078742   0.4428576
   0.0356731   0.0252760   0.0099290   1.0708956  -1.1110207   0.8218024
   0.0351519   0.2005013   0.1133112   0.4984067  -0.4622920  -1.7950577
   0.3875432  -0.6520484   0.6548425  -0.0077103  -0.1315116   0.0060941
   1.7553410   0.0682984  -0.4006675   0.6193201   0.5808917   0.3750950
  -0.0611175   0.1659071   0.1329104   0.2846601  -0.3519893   0.1267360
   0.4836209  -0.2973857   0.4442971  -0.0894131  -0.1637267   0.1922783
  -0.4574507  -0.1498530   0.2387395   0.3271446   0.0394418  -0.4268412
   0.0247152  -0.1711038  -0.0554359  -0.2070963  -0.0972721  -0.0574728
   0.3139090  -0.0372149   0.8039899   0.0737488   0.1275686  -0.2325527
   0.6564510  -1.3179350  -0.3266487  -0.3157823  -0.2425708  -0.0524604
  -0.6261313  -0.3377529   0.5119635  -0.2924202   1.0830421  -0.2955129
   0.2488084  -0.1845539   0.1449044   0.3970989   1.3749203  -0.1460526
  -0.1084679  -0.2117935   0.9163493  -0.1984634   0.1516254   0.0144825
  -0.1466425   0.2364979  -0.1616881  -0.8139510   0.9380107   1.7505170
   0.3681150   0.7611194   0.1963877  -0.3542796  -0.0504443   0.9320664
   0.1338008  -0.2500686   0.1123551  -0.1722169   0.1441462  -0.3262161
   0.0900175   0.1825021  -0.4472164   0.4616041  -0.2461916  -0.6398159
   0.1533702   0.1179733  -0.0004687   0.0771701   0.4891233   0.0912212
   0.0128334   0.1012953   0.0378178   0.5296104   0.8178756  -0.8617729
   0.0378760   0.0423517   0.0122111  -0.2401229   0.5372800   0.7100245
   0.6634655   0.1792863   0.6064568   1.2428836  -0.0064792   0.1146138
  -0.1921924   0.0422221   0.2284399   0.0662552   1.7568545   0.6305046
   1.2293733  -0.1758210  -0.1781364  -0.3043203  -0.1094131  -0.0983346
   0.6637492   0.9872789  -1.3354777   0.9712527  -0.5530224  -0.7645761
   0.0095973  -0.3724744  -0.8557510   0.1412616   0.1879125  -0.1455554
   0.2062169   0.3790650   0.0916194  -0.2290638   0.0224348   0.1684164
   0.3039444   0.2795774  -0.2296318   0.2608501  -0.0006382  -0.0823757
  -0.1698324  -0.7004707   0.1318491  -0.0703335  -0.0319081  -0.2126409
  -0.4299631  -0.8089353   0.2530413  -0.7528163   0.2582226  -0.1685056
   0.0027000   0.0354366  -0.0809435  -0.9877173  -0.6945833  -1.3781334
   0.3882688  -0.5251823   1.1017975   0.0117003  -0.3022627  -0.2425560
  -0.7905587   0.4753384   0.1950259   0.2339629   0.4512789  -0.4477068
   0.2212102  -0.0287797   0.2959875   0.3801178   0.1069856   0.1922227
   0.0872451  -0.5952662   0.0940016   0.3153309  -0.1646608  -0.1887740
   0.5579734   0.1580571  -1.0144114  -0.5513442  -0.5817810  -0.1236643
   0.5223848  -0.0558425  -0.0685971  -0.0951292  -0.7742655  -0.2268831
   0.0644582   0.3007159   0.1368369  -0.1519491   0.4636877  -0.3510326
   0.0051000   0.2402603   0.1577724  -0.3053076   0.1038059   0.0550954
   1.4060387   1.1480368  -0.2349662   0.1470495  -0.2285989  -0.2086054
  -0.0843475  -1.1638829  -0.1581268  -0.0360251  -0.1841214   0.4351491
  -0.1474987  -0.1355422   0.1308869  -0.2085606  -0.0105452   0.1859319
  -0.2422431   0.1111498  -0.2475842   0.2505380   0.5780282  -0.1148319
   0.2861085   0.0998197   0.3216252   0.7232296  -0.3021879   0.3597552
   0.0030448  -0.3719052   0.4092598   1.2207162  -0.3275918   0.4237547
  -0.2949145   0.2178121   0.3603702   0.6965436   1.2066378  -0.5284281
  -1.0183857   0.2294800   0.2165827  -0.4318937   1.0894370   0.3228171
   0.3308903  -0.1469526  -0.2633009   0.0042190  -0.1571265  -0.2380304
  -0.3815479   1.5197612  -0.3419591  -0.6840395  -0.0377473   0.0727890
  -0.5091100  -0.4425340   0.2939066  -0.9250455   0.0664240  -0.3617411
  -0.3228870   0.5915449   0.0110272  -0.2046841  -0.0631866   0.0864785
   0.1390856   0.2703661  -0.2982017   0.0974015  -0.2358955  -0.2931848
   0.4847656  -0.9034413   0.1205809  -0.1589834  -0.1342101   0.1807817
  -1.0352059  -0.4081956  -0.1549342   0.2679648  -0.2019437   0.0915203
   0.5326350  -0.5035581   0.3080887  -0.8380928  -0.3666639  -1.6239503
   0.0643608  -0.2393676   0.1208343  -0.8330104  -0.6155238  -0.3968158
   1.1102404  -0.2090702  -0.7987051   0.3738589   0.0522809   0.1303788
  -0.0176543   0.7461050   0.3577598  -0.4625342  -0.4949522  -0.0893735
  -0.0003920  -0.0563103  -0.0019482   0.4594310  -1.3744361   0.6770090
  -0.1493858  -0.4023891  -0.0408697  -0.0952243   0.1331107   0.1427142
   0.2124491   0.2088431  -0.3237172  -0.1162879  -1.0448646  -1.3498075
   0.0099265  -0.0588414  -0.1505698   0.4532476  -1.0266508   0.0816367
   0.7929220  -0.7900582  -0.5905081   0.3337776   0.1950618  -0.1366329
  -0.0246271   0.0255234   0.0442661  -0.0540089   0.0255862   0.2823577
  -0.7169275  -0.9981343  -0.3700879  -0.1001191   0.2240374   0.0812017
   0.5436906   0.7656620   0.1819737  -0.1296476  -0.0962833  -0.1407692
  -0.1174821  -0.0569732   0.1409416  -0.0538712   0.1882918  -0.0025245
  -0.1767714  -0.3423836  -0.0109823   0.2013060   0.8046308   0.0936087
  -0.1530193  -0.0398576  -0.3289826   0.2291219   0.5791700  -0.1647987
   0.0315195  -0.1479707  -0.4378321  -0.1802465   0.1240175   0.4803511
   0.1613141  -0.6272290  -0.2305961  -0.3580218  -0.2471163  -0.1866535
   0.1280732  -0.1417904  -0.2175874  -0.0379987  -0.0738327   0.0752854
   0.0189259   0.1202937   0.1147056  -0.2068653   0.4726428  -0.7152846
  -0.3450846  -0.1884317  -0.1069148  -0.4256138   0.4410737  -0.2484536
  -0.0648067   0.0589234  -0.1397281  -0.1957403  -0.0632235   1.4865580
   0.0268125  -0.1349288   0.1942569   0.6554282   0.2327096  -0.7647931
  -1.2616082  -0.8689981   0.8858835  -0.2578625   0.4403174   0.6307093
   0.0301090   0.2646479   0.2688650  -0.1646426  -0.2978128   0.0681054
   0.1880459   0.1375570  -0.2942342   0.3489076   0.1096267   0.0530031
   0.1321024  -0.0538920   0.1087017   0.3681908   0.6717473  -1.0215225
   0.2901017   0.1595762   0.3979108   0.3017492   0.4510400   0.3948693
  -0.2974018  -0.2359603  -0.0540372   0.2945210   0.1994790  -2.1250750
  -0.0288159   0.1882387  -0.3733063   0.0966182  -0.1153856   0.0260320
  -0.0755205   0.3483287  -0.9841915  -0.6451437   1.0376230   0.4285129
   0.0417610  -0.0854957   0.0353057  -0.0365794  -0.8290788   0.6545501
   0.0475121   0.1088823   0.1496551  -0.1932378  -0.2038914  -0.5063305
  -0.0504396  -0.2481916   0.2365075   0.2171224   0.9456933   0.5005853
  -0.0479701   0.0951889  -0.1162755   0.1839111   0.4978953  -1.6067655
   0.2362159  -0.0792936   0.1208777   1.5033520   0.0389008  -1.0181347
  -0.2574301  -0.0754147  -0.3100546  -0.9288547   0.4444689   1.3761662
   0.9957374  -0.1931558  -0.0379554  -0.4331504   0.7733698  -0.0870985
   0.0205732   0.2246853  -0.4583322  -0.3879417  -0.1131933   0.2608557
  -1.1464403   0.4470213   0.3954848  -1.4869886   0.3074541  -0.8498948
   0.0335749   0.0902746   0.3425109  -0.0649491  -0.1652061   0.0549058
  -0.0218517  -0.3760261   0.0131159  -0.1860415  -0.7793281  -0.1857533
   0.0742926  -0.2964658  -0.1249459   0.8169168   0.6952609  -0.1737230
  -0.3257258  -0.1513373  -0.0156437  -0.3257241   0.1317203   0.0808014
   1.1001100  -0.3251693  -0.7829905   0.5873802   0.0096253   0.6868704
   0.9996363   0.1247438   0.6296428   0.6479095   0.0274422   1.2016957
   0.1588466  -0.4829996  -0.3544209  -0.0145820   0.2546496  -0.0349492
   0.2365911  -0.0060601  -0.0361839   0.0892333   0.2481250  -0.0604899
  -0.0909552  -0.0418863   0.2327174   0.1169012  -0.0114295  -0.0168630
   0.1630971  -0.0453809  -0.1291811   0.1445953   0.4091381   0.1100394
  -1.2774974  -0.1868688   0.8128793  -0.1513651  -0.4421683   0.2827534
  -0.1995114  -0.1051296   0.8435355   0.0224555   0.7420916  -0.1328886
  -0.1841424   0.0904509   0.3145156   0.4230209   0.2101140  -0.5768527
  -0.5233326   0.0973462  -0.1733818   0.2611719   0.1944563   0.2235436
  -1.2474061   0.0206647   1.0311183   0.1619081   0.7258708  -0.6418718
   0.2403982   0.0280634   0.1844185   0.2481490  -0.4868474   0.3133889
  -0.2098671  -0.2531415   0.6601166  -0.1741720   0.2268235   0.0764566
   0.7494081  -0.5374326  -0.3212893  -1.0881182   0.8080236   0.1565956
  -0.0217802   0.0321346   0.1045337   0.2198530  -0.3662974   0.3057060
  -0.3924068   0.1296568   0.0389466  -0.4110845   0.0291654   0.0429973
  -0.2201517   0.1009443  -0.0959263  -0.1100857   0.1341217  -0.1035525
   1.0057135   0.2804909   0.7556722   0.0681884  -0.0281475  -0.1654408
  -1.2378927   0.2029284   0.4129481   0.2872285   0.0045588   0.2008444
   0.7692401  -0.1893168   0.0141412  -1.5002464   0.4470117   1.5269794
   0.2710794  -0.1525086  -0.1207817  -0.1983363  -0.0962447  -0.1796099
   0.0723964  -0.0784399   0.2713198   0.1279163  -0.0258485   0.0207417
   0.0953240   0.2812979   0.1266822   0.1443919  -0.1243516   0.0702893
  -1.3357026  -0.5215692  -0.4160854   0.3541733   0.0072450  -0.0848236
   0.0801766   0.0691919  -0.3421929  -0.2431890  -0.0247304  -0.2879494
   1.0124464   0.6695476   0.2117909   0.2005704   0.1691747  -0.1324975
  -0.0098894   0.3543402   0.9908088  -1.2593833   0.4234780   0.5902085
  -0.9601887  -0.4544985   0.5822772   0.2164433   0.0584652  -0.1892496
  -0.3308406  -1.1991796  -0.3174477   0.1840554  -0.1031506   0.1428123
   0.0805226  -0.0709363  -0.1279249  -0.1263475  -0.0941044   0.0811057
   0.9291516   0.7321290  -0.1626522   0.2300618   0.2338389  -0.1445017
   0.7655753   0.3265981  -1.0729004  -0.0970080  -0.2853538   0.2867417
   0.4669686  -0.2811741  -0.2357612  -0.4094034  -0.8054749  -0.7866255
   0.0302859  -0.2640308  -0.1564129   0.0363763  -0.5343917   0.0840427
   0.4427413   0.5535966   0.1874123   0.1344071  -0.0260541  -0.2711147
   0.0949618   0.2004516   0.4791277   0.1963518   0.0814866   0.0023419
   0.0443693  -0.3565919  -0.3155654  -0.1689240   0.0307427  -0.0859576
   0.1311634  -0.1282181  -0.2780876   0.0835010  -0.1271539   0.1414077
   0.1839598  -0.0398476  -0.0272614   0.3832327  -0.1343296  -0.2648398
  -0.0573181   0.2081553  -0.3330223   0.3379683   1.0293573  -0.3098078
  -0.0017808  -0.4988020  -1.0963863   0.0213669  -0.1995919   0.3143792
  -0.3311085  -1.0831556  -0.4169810  -0.6950882  -0.5313748   0.2101758
   0.3172648   0.2103884  -0.0366034  -0.1611827  -0.1263589  -0.0413896
   0.2528367  -0.1757536  -0.0799880  -0.1378019  -0.0274241  -0.0274364
  -0.3002597   0.0106368   0.0284445   0.2679450   0.1180909  -0.0624430
   0.3139260   0.2159570   0.0038350  -0.3722565  -0.2402455   0.2861162
  -0.1648477   0.3076819  -0.2282198   0.2625062  -0.3101400  -0.0386249
  -0.2588835  -0.9627114  -1.2814827   2.0371207  -0.9619263   0.6727665
   0.2598749   0.0077325  -0.1865732  -0.3241780  -0.2855160  -0.0751165
  -0.9032400  -0.7525075  -0.4800475  -0.0558704  -0.2452345   0.1365381
  -0.1153616  -0.0753051   0.2062017  -0.1028953   0.2090256   0.3239357
  -0.3002296   0.3274743  -0.0293699  -0.0581676  -0.0714905   0.1528552
   0.1146319   0.3027863  -0.0800352   1.0659882   0.2933875   1.3889090
  -0.1115122   0.0274338  -0.3943914  -0.6521729   1.3101635  -0.3740558
  -0.1904646  -0.1186374   0.1275746  -0.5093079   1.2941320  -0.5397011
  -0.2091973   0.1659947   0.1766153  -1.2405149  -1.1452259   1.0757090
   0.0444819   0.2584546   0.3542140  -0.6581472  -0.0110765   1.0706613
  -0.5123389   0.0536116   0.3605203   0.3628706  -0.2949084   0.1956328
  -0.9673867   0.5943886   0.3803698  -0.0363541  -0.1217151   0.2092053
  -0.0583978  -0.2599104   0.0765678   0.3006319  -1.2373092   0.6301018
  -0.0622399  -0.6091122  -0.8194903  -0.0678402   0.0331518  -0.0386577
  -0.3030393   0.3022535   0.0349724  -0.3429034  -0.0477412  -0.0976617
  -0.6353821   0.0824431  -0.3563642  -0.1200943   0.0517829   0.3520050
  -0.2491219  -0.0075698   0.8260694   0.1968572  -0.1659260   0.3051453
  -0.1090718   0.0148908   1.2325910  -0.0047435  -0.7247043  -0.3062876
   0.4443646   0.2148357   0.1209249   0.7908455  -0.2404086  -0.5034987
  -0.0653141  -0.1376320  -0.3602841   0.7859676   0.9196618  -0.2812666
   0.4003895  -0.3955831   0.2406205  -0.4655697   0.7689123   0.8336805
  -0.2407618   0.2692229  -0.0352241  -0.3434271  -0.2111448  -0.4772537
  -0.0086543  -0.4386621   0.3218347   0.4779261   1.4663232   0.6188873
  -0.0865183   0.2912867  -0.2531926   0.0265307   0.0690572   0.0179669
   0.0405084   0.1538428   0.2297997  -0.4509705   0.5308775  -1.0743994
  -0.0210635  -0.2846420   0.0921141  -0.4246716   0.1846434   0.7155146
  -0.2341063  -0.2318142   0.0139140  -0.0288787  -0.6984882   0.1452689
  -0.8357068  -0.4690110   0.0439225  -0.0950269  -0.2065762  -0.0096255
  -0.1712510  -0.1411835   0.7222427   0.8984336  -0.2127346  -0.1373805
   0.1985233   0.1449462  -0.1587889   0.1565028   0.1964301   0.1289994
  -0.0170796  -0.0044312   0.0843962  -0.0481493   0.0203584  -0.0174390
   0.4584023   0.1250815  -0.4487477   0.1782271  -0.2447223   0.0274889
  -0.1019388  -0.0516229   0.2015061  -0.0701122   0.0281155   0.2829748
   0.3737869   0.0736764   0.4070097   0.0355602   0.2281982  -0.0756698
  -1.0695089   0.1934593  -1.9117843   0.5902427  -0.2778754  -0.4811389
  -0.2652245  -0.2296602  -1.0759851   0.2822408  -1.3531990   0.3518427
   0.0663184  -0.1392164  -0.1062552  -0.0022724  -0.4190387   0.1570950
   0.0824827  -0.1798007  -0.1085102  -0.3544399  -0.3854078   0.1852601
   0.0285964   0.3573473  -0.4741263  -0.1029897  -1.4731774   0.0774426
   0.1769548   0.2329034  -0.1014436   0.6761034   0.6514707  -0.4048233
  -0.7987622   1.0327789   0.8325562   0.1958887  -0.1285741  -0.4451532
   0.4347667   0.0017047  -0.6320016  -0.0371116   0.5131646  -0.0865313
   0.4046850   0.9586824  -0.0292908   0.0920505   0.0736054   0.1949826
   0.0100778   0.0944537  -0.2399872   0.0582301   0.0253914  -0.0853858
  -0.8949977  -0.3043465   0.4330578  -0.2042420   0.1076909   0.0449931
   0.4186534   0.4351282  -0.2447425   0.0205385   0.2242450   0.1315394
  -1.7624279   1.4010036   0.3194411  -0.1559465  -0.0826040   0.1865262
  -0.4665093   0.8934933  -0.0897439  -0.2535072  -0.2712306   0.2950975
  -0.0014402  -0.1390013   0.0482722  -0.1035707  -0.0822353   0.2040567
   0.7716955  -0.5924231  -0.7103627  -0.3318018  -0.0055458  -0.1446606
  -0.1416889   0.0286394   0.0087340  -0.0032845   0.0815719  -0.1834885
   0.1686307  -0.1685623   0.3004523  -0.3934347  -0.0918444  -0.2543111
  -0.8751485   0.4361092  -1.2331831   0.3497315  -0.0048592  -0.0868695
  -0.8499315   0.0266096  -0.2885662  -0.4189496   0.1584739  -0.8328231
  -0.0414711  -0.0482692  -0.1204265   0.8000485  -0.0025478   0.2639518
  -0.5898957  -0.2310555  -0.2618371  -0.2022082  -0.1460559   0.3976164
   1.6431972  -0.7784242   1.0515397   0.2742681  -0.0580867   0.2499640
   0.0027817  -0.2763242   0.3244747   0.0823320   0.3840461   0.8355225
  -0.1787393  -0.0402646  -0.5377794  -0.2420908  -0.2141991  -0.1430619
  -0.2906471   0.1971404  -0.7916936   1.6354509   0.6823922   1.3136777
  -0.0988441  -0.3677344   0.3342374   0.4116276   0.2748193   0.1315695
   0.1991177  -0.0509869  -0.0292907   0.0152020   0.2523061  -0.1748668
  -1.2971706   0.2943612  -0.9828052   0.0664682  -0.3503334   0.4074483
   0.2513972  -0.4322845  -0.1051447   0.0435462  -0.3131216   0.0433061
  -0.7579591   0.6014302   0.1616798  -0.6713727  -1.5180491  -0.1597623
   0.1668519   0.1601964  -0.0004545  -0.9394292  -0.2127374   0.7464333
   0.2431870   0.9111211   0.9988246  -0.3291997  -0.0703217  -0.0470400
  -0.0049406  -0.1579889  -0.1017118  -0.0926719   0.0747622  -0.1408127
   0.4443462   0.8903797  -0.1173561  -0.9849358   0.2995824   0.1109666
   0.3467287  -0.1618327  -0.0389778  -0.1908627   0.0174627  -0.2116969
   0.1075294   0.3064643  -0.1159947   0.5721437   0.3684755   0.3092909
  -0.2370247  -0.1407678   0.2184722  -0.9745538   1.3355877  -0.2577738
  -0.2040424  -0.2603123  -0.1123169   0.2873893  -0.3760792  -0.0252440
  -1.0720140  -0.3546969  -0.5044876  -0.1536807   0.2891289   0.2648316
   0.6592634  -0.2328600  -0.4396722  -0.4244660  -0.3076013  -0.0906956
   0.4750371   0.6123825  -1.6716672  -1.1207815   0.0599028   0.4083485
  -0.4399445   0.1261400  -0.4609145  -0.2741586  -0.4970940   0.0491020
  -1.2374216  -0.1441201  -0.0329747   0.0640682   1.3687865   0.1584069
   0.0545085   0.4921624  -0.7584745   0.1547364  -0.1764784  -0.1115894
  -0.0652179  -0.0275396   0.1741810   0.0580041  -0.1415854   0.0237301
  -0.3722079  -0.2508527   0.1041544  -0.4156220  -0.3870933   0.0179309
   0.4032855   0.3810799  -1.3489524   0.0789222  -0.1722468   0.1552229
   0.6186192  -0.1726282  -0.3425630   1.0689203  -0.0899569  -0.2007737
   0.1995019  -0.1035875  -0.1552117   0.7491986  -0.9690784   0.5422566
   0.0116992  -0.3340587  -0.1194972  -0.5892620   1.2688237  -0.1370419
  -1.4682255   0.2314392   0.3766471   0.2441645   0.8706833   0.2343575
  -0.1216103   0.2078124   0.4586745   0.1270104  -0.0618691  -0.2098184
  -0.0213871   0.1170621   1.1507409   1.1599218  -0.1213509  -0.8207395
   0.0205078   0.3144570   0.0191477   0.0433892  -0.2604471   0.2045990
   0.0782217  -0.0377498  -0.4933491   0.1374967  -0.5612620   0.4485066
  -0.2218431   0.3114557   0.3392608  -0.2102779   0.2682341   0.2610760
  -0.6424503   0.3081307   0.1235645   0.8961536   0.1637853   0.6770273
  -0.4169543   1.2260709   1.5425708   0.3608645   0.2651604   0.2422833
   0.6133502   0.5307072   0.2233818   0.4866992   0.1049085   0.0356985
   0.0498067  -0.3829436   0.1494383   0.0360390   0.0389600   0.3377927
  -0.1554438  -0.2464992  -0.1749226   0.3766546   0.1866770  -0.5549745
   0.2785701  -0.0186754   0.0974531  -0.0997339   0.0093563   0.0600077
   0.8832268   0.6117805  -0.8711766  -0.2539329   0.0971076  -0.2133772
  -1.0893467  -1.1907069  -0.1515021   0.0442998  -0.0566599   0.1862209
   0.2571201   0.7281977  -0.6961542  -0.5380185   0.9054785  -0.1959768
  -0.1682720   0.2264279  -0.1200578   0.4898201  -0.2571300   0.6830072
   0.8081034   1.2043005   0.4774231   0.0108056  -0.4075233   0.1971180
  -0.5016123  -0.4489135  -0.5497327   0.3405618   0.1185808  -0.9566413
  -0.0534774   0.2659407  -0.0393883   0.2758492   1.1885735   1.3390545
   1.0543416   0.3776474  -0.3236106   0.0697734  -0.0632967   0.0817984
  -0.6987732   0.2408891   0.0992639   0.7196646  -1.2050841   0.4590917
   0.4666789  -0.0858458  -0.5552126  -0.3273420  -0.2175774  -0.2936651
  -0.2919048   0.1706655  -0.2994698  -0.0809054  -0.1837590  -0.0009294
   0.1539107   0.3390611  -0.3935725   0.5648311  -0.2738310  -0.2318933
  -1.0502984   0.9976947  -0.1448052   0.0289217   0.2527599   0.3406620
  -0.0111455   0.4719346   0.2793206   0.2215847   0.0984239  -0.2842419
   0.4607089   0.9652002  -0.4339868  -0.2692955   0.4455346   0.5245438
   0.3742776   0.1741644  -0.3129581  -0.3206216  -0.1621570  -0.1915713
  -0.5645826  -0.5081815  -0.0238535  -1.8309096   0.8466129  -0.7908286
  -0.1682788   0.0221483  -0.1432494   0.1646681  -0.2691183   0.3524952
   0.5264729  -0.2815235  -0.9714453   1.1932926  -0.0032077  -0.2724825
   0.2013910   0.2564309   0.2577418   0.0685776  -0.0619137  -0.0459054
  -0.4353555  -0.3151858   0.0516886   1.1728553  -1.4708216   1.5774025
  -0.1632339   0.2441413  -0.2577205  -0.1838888   0.5519913  -1.3867876
  -0.0911195   0.0632472  -0.2033081  -0.9331766   0.5854563  -0.1844953
   0.2329865  -0.0341368  -0.0193980  -0.1784101   0.2143353  -0.1795223
  -1.1537493  -1.4936520   0.0666200   0.1480791  -0.4390927  -0.5921782
   0.0569550   0.0728259   0.2074865  -0.7093082   0.5642988   1.1361670
  -0.3395048  -0.0535161   0.6389953  -0.0020560   0.0937897   0.2038325
   1.0715166  -0.8066631   0.4087264  -0.8542788  -0.0170748   0.6421342
  -0.1567359  -0.1367292   0.1062132   0.0380397  -0.1021077   0.3124140
  -0.0563467   0.1590578   0.1396587   0.1423741   0.1104328   0.3767033
  -1.1060041   0.0649685  -1.7004903  -0.2951902  -0.0241195  -0.2235144
  -1.5232089  -0.9651525  -0.1190827   0.0772233  -0.0529757  -0.0673905
  -1.4613263  -0.1446614   0.2486867  -0.1591151  -0.1309036   0.0925311
   0.0183343  -0.0095663  -0.3096383   0.7204106  -0.4641584  -0.2231788
   0.3740769   0.1046732  -0.4477203  -0.1533423  -0.1722413   0.4488444
  -0.0047324  -0.0490745   0.0468114   0.3870450   0.0192873  -0.2576640
   0.2116998   0.1287082   0.1883785   0.1917291  -0.2021871  -0.0511859
  -0.0382645  -0.0227996  -0.2802754  -0.2282821  -0.2864186  -0.2210593
  -0.0744587   0.1143231  -0.2522631  -0.0611190  -0.5416957   0.4602623
   0.1194650  -0.3315498   0.1259225  -0.1369057  -0.2507469  -0.4092181
   0.8956802   0.2011381  -0.5101172   0.4435447  -0.0711892  -0.0396049
   0.5645926  -0.6286160   0.0361763   0.5090702   0.2648042   0.5042507
  -0.2126389   0.0681631   0.1548896   0.0351837   0.0921722  -0.2906265
  -0.0115475  -0.4894364  -0.2518772  -0.4101873   0.2643991   0.1291276
  -0.0780138   0.0060890   0.0077121  -0.0012013  -0.3294154  -0.1807979
  -0.3046559   0.2766036  -0.7240546   0.0955781  -0.1913574  -0.4013372
   1.5248534  -0.0780118  -0.5917814  -0.0810880  -0.2470426   0.0328329
  -0.6236388  -0.0624927   0.0564202   0.4086388  -0.2706819   1.3406569
  -0.1553970  -0.2175153   0.1636855  -0.1078845   0.2330846   0.2673511
  -0.0543972  -0.2538179   0.0843694  -0.0060258   0.9072053   0.8325889
   1.0930257  -0.5665453  -0.0371452   0.0649309  -0.1419346   0.6394096
   0.1209491  -0.1412417  -0.0773045   0.3367229   0.1889198  -0.3794521
  -0.5147816   0.5220941  -0.6602459  -0.2273323   0.0451992  -0.0504673
   0.9172056  -0.4010644  -1.1639860   0.0238567   0.1751563  -0.2302617
  -0.4250227   0.7405533  -0.3889381  -0.9621887   1.9156485   1.1154293
   0.1999761  -0.0755825  -0.2123667   0.0993337  -0.4862714  -0.1406212
   0.1727172   0.4305653  -0.6805291  -0.0845866   0.1416663  -0.1115988
   0.1424069  -0.1705794   0.0617162   0.3093054   0.0712332   0.2891136
  -0.1887108   1.7775435  -0.5751989  -0.2651276  -0.2819586  -0.0902817
   0.1131624  -0.8841988   0.1203185   0.0433998   0.0229965   0.1699118
   0.1790126   0.1307360  -0.2292726  -0.0389713  -0.1037164   0.0101651
  -0.5838694  -0.1273546  -0.2941506   0.0613741   0.3828552   0.1248421
   0.5735516   0.5048386  -1.9075588   0.1132217  -0.0808408  -0.1873024
   0.6023144  -0.5130842   0.1400017   0.1285344  -0.5072721  -0.2844282
  -0.0382266  -0.0719858   0.4730645   0.7628223   0.7506110  -0.4951990
  -0.6982381  -0.2950914   0.5608610   0.0390464  -0.1488271  -0.1505921
  -0.4953204   0.1743819   0.4835486   0.1337555   0.2253074  -0.1212469
  -0.1771091   0.0440837  -0.1454401  -0.0769229   0.2170292  -0.2449291
   0.9104948  -0.7447903  -0.9446910  -0.0360106   0.2893268   0.3552502
  -0.7358030   1.2766689  -0.5290761  -0.0325524  -0.1198254   0.0377046
   0.2021078  -0.1322901  -0.2358389  -0.0002417   0.5440965   0.1496589
  -0.2284934   0.2930567  -0.2433147  -1.1795070   0.7047113   0.4360706
   1.4492029  -1.4599996  -0.1811549   0.2024950  -0.2826067  -0.1041858
   0.2737135  -0.3009983  -0.1726161   1.2190855   0.4480967  -0.0612331
  -0.1026563  -0.1823513   0.4197127   0.1593204   0.3039545  -0.4447079
  -1.5989910  -1.2435194  -0.0630993  -0.2365185   0.0823857   0.0150150
   1.1600165  -1.3598483   1.9120440   0.1132919  -0.3216949  -0.3235876
  -0.0087355  -0.0924784   0.2180601   0.3983548  -0.1763122   0.0741046
   0.0205220   0.0783390   0.1746568   0.1645685   0.1572172  -0.1310305
  -0.0533762   0.1369255   0.0493406  -0.1641944   0.5709908   1.5507095
   1.4198995  -0.6094037   0.9808874   0.1613418   0.0013325   0.1831555
  -0.1322738  -0.5591878  -0.3464076  -0.0311130   0.2523639   0.0596628
  -0.0599193  -0.3222366   0.2777599   0.2905138  -0.1176352   0.5393342
  -1.0271822   0.0658607   1.3519496  -0.0174320  -0.1730926   0.0952035
   0.1778186  -0.7804359  -0.4783737   0.2591230  -0.2143335   0.1934193
   0.2964259  -0.1634575   0.1835390  -0.4193934   0.2667211  -0.4660311
  -0.2267010   0.6775197  -0.7703586   0.0589797   0.3587110   0.0085049
  -0.5997678   0.2013510  -0.5372255  -0.0254342  -0.3122306  -0.2506719
   0.3106402   0.2076839  -0.2546897  -0.3605960   0.2656078   0.0751526
  -0.0267886   0.2051082   0.0638729  -0.5280721  -0.3031577  -0.3681501
   0.1281924   0.4688908   0.8813707  -0.0800304  -0.0194107   0.5794320
  -0.1089537  -0.1303624   0.1421358  -0.2948552   0.1534482  -0.1501953
  -0.1725126  -0.1366003  -0.0321528   0.2189086   0.0423243   0.0021256
   0.0385508  -0.0049667  -0.1664036   0.3270039  -0.6271183  -0.6907957
  -0.0794880  -0.2090470  -0.3043423   0.5210809  -0.1910665   1.1244345
   0.2270724  -0.3947040  -0.4228371  -0.6972751   0.2974498  -0.5627913
  -0.7563115  -1.3841623   0.3878699  -0.0800003  -0.1486790  -0.4091245
  -0.0288917   0.2422704   0.0618119  -0.2216605   0.0956354   0.1024077
  -0.0255782   0.0426305   0.5918880   0.1231437  -0.1097267   0.1178810
  -0.0122036   0.0556529   0.2432618  -0.0638735   0.0324134   0.2867540
  -0.0941477   0.3025766  -0.1924866  -1.2393011   0.3058570  -0.0197352
  -0.0616002  -0.6220725   0.2311561  -0.8952152   0.2323117   0.3309059
  -0.2145376  -0.2063315   0.2319921  -0.5765653   0.0415679   0.3954600
  -0.1830262  -0.3777693   0.3036910  -0.4008529   0.4429478   0.2479422
   0.4759698   0.3983434  -0.0255680  -0.0156330   0.7538990  -0.4596790
  -0.1883226  -0.2508738   0.0729004  -0.0249412  -0.1218454  -0.1409511
   0.1689428  -0.0548401  -0.3091114  -0.1093710  -0.3244742   0.2601141
   0.4045002   0.2677047  -0.0136106  -1.9285932   0.1400282  -0.3154189
   0.2655355   0.1054101   0.4196210  -1.0031947   0.0490980   0.1420466
   0.0985268   0.0805453   0.2747930   0.9930769   0.4095101   0.5276386
  -0.2936073  -0.3662745   0.0589379  -0.1951988  -0.7500800   0.5180244
   1.3647803  -0.3122102   0.6331026   0.7708516  -2.0735379  -0.8646438
   0.3657103  -0.0171397   0.1564629   0.2535541  -0.3611565  -0.4918247
   0.0530995   1.1597490   0.2681407  -0.0053286  -0.4518013  -0.5154152
   0.0189102  -0.2542619  -0.3730927  -0.2315340  -0.1693108   0.2218180
   0.0718113   0.2579036  -0.2676605   0.7747880  -0.8203838   0.3617640
   0.0175420  -0.0649707   0.0963516  -0.2916645   0.1962231   0.2042286
   0.0020798   0.0475375   0.4265421  -0.1976626   0.3812674   0.7809952
  -0.6050542   0.4220696   0.5514977   0.0633347  -0.1932005  -0.3191164
   0.1306951   0.5831274  -0.7480649   0.4669171  -0.2830818   0.8424323
   0.1018636   0.0226664  -0.2683476  -0.1420091   0.1313879   0.1179636
  -0.0427327   0.0033033   0.2236654   0.0088022   0.0398663   0.2420097
   0.2275710  -0.7866447   0.5194526   0.2102945   0.2616906   0.2413213
  -0.1212880  -0.1097746  -0.1820255   0.0979873  -0.0811133   0.2684627
  -0.4521087   1.1796124  -0.7034730   0.1642471   0.0114814   0.1230611
   0.7644922   1.9195462  -0.3278427   0.1975214  -0.0212289   0.1236084
   0.2894809   0.0675150  -0.2164433  -0.2822667   0.8486505  -0.2115139
  -0.0749114  -0.2701115   0.0250088  -0.1539565  -0.6841617   1.2620955
  -0.0549399   1.2385536  -0.0730155  -0.1116711   0.0439282   0.1273970
   0.3481835   0.1342875   0.0240215   0.8031374  -0.4807830  -0.8438804
  -0.6587755  -0.5924555  -0.5946723  -0.0242937   0.6765189   0.4976267
  -0.0484571   0.3359547  -0.3293037  -0.1822170   0.0411219  -0.0314647
   0.1506887  -0.1625971   0.3417177   0.5973533  -0.7043588   0.9206662
   0.2938221  -0.0729414   0.1614960  -0.9833969   0.5050676  -0.5839721
   0.5302450   0.1907814   0.1585255  -0.0989051   0.8699546  -0.6068823
   0.2244263   0.0462713  -0.1809864  -0.0307512  -0.3617088  -0.1256338
  -0.6323930   0.0097491   0.8748768   0.3630638   0.1312429  -0.1401591
  -1.0737929   1.5259128  -1.3704232  -0.9491366  -0.8911070   0.1224392
  -0.2072441  -0.0998125  -1.2145165  -0.2457628  -0.3076746  -0.0200229
   0.7391860  -0.7126020  -0.8787708   0.3832621   0.2881596  -0.2784834
  -0.1655842  -1.2632662  -0.2835860   0.1374683  -0.0560541  -0.4026307
  -0.1796191   0.0737561  -0.1037927   0.2393421  -0.3055165  -0.0444354
   0.4972029  -0.4877634   0.6017304  -0.2495393   0.3263778   0.2509600
   0.0469609   1.0989062   0.1298441   0.0681709  -0.1754128   0.6420330
  -0.3697853  -0.1824125   0.1656265  -0.3767336   0.0978042   0.5228456
   0.1738015  -0.1669194   0.0258732  -1.1505342   0.7917369   0.1493775
   0.2447473  -0.0519884  -0.3260936  -0.5663064   0.3704531  -1.4586105
  -0.3794033   0.4203623  -0.1417284  -0.1939263  -0.0643222   0.0821498
   0.5180912  -0.1171951  -0.0655783   0.3470128  -0.1644123  -0.3970807
   0.5060229  -0.7587225   0.4729377  -0.2566631  -0.5576485   0.2432754
   0.2071890   0.0658164   0.0608783  -0.1810113  -0.2843333  -0.0219624
  -0.1645640  -0.2683079   0.0252466   0.2192374   0.3446977   1.1018462
  -0.0939595  -0.4169734  -0.0515942  -0.1853563   0.1580601  -0.6129575
   0.2339231  -0.3758712  -0.1761367  -1.6769096   0.4917358  -0.3174949
   0.3408324   0.1891082   0.0970691   0.4353616  -0.2164477  -0.1945148
   0.5388166   0.1871310   0.4478819  -0.5241432   0.0370403  -0.4949283
  -0.1993538  -0.2823995  -0.1691946   0.3400225   0.1411249  -0.0544653
   0.2635305   0.4638996   0.1276716  -0.2535713  -0.1947493  -0.0817989
  -0.1089633  -0.0473964   0.3871894  -0.2510272   0.1081706   0.1283418
  -0.4159674  -1.0246460  -0.4389662   0.1191235  -0.0342750   0.0833826
  -0.5736036  -0.6395749  -0.3833819  -0.0632454  -0.0624998   0.0534934
   0.1307126  -0.1042917   0.0878398   0.1158080  -0.2458033  -0.4074290
   0.0729676  -1.1873906   0.8250905   0.3383037  -0.1491722  -0.2845092
   0.1185745  -0.2678163   0.1083232   0.0825532  -0.1193255   0.4168491
  -0.3193999  -0.9604679  -1.5675317  -0.0510900   0.0388116  -0.0771621
   0.1040680   0.0168555  -0.1968441   0.3268863   0.2514951   0.6532569
  -0.1285608  -0.9398149  -0.1524365   0.2236605   0.1016229  -0.0420876
   0.0489604   0.1769702  -0.2998375  -0.0601339  -0.4155676   0.2599144
   0.0357510   0.0328717   0.0022741  -0.2382137  -0.2581754   0.0200753
   0.2428842  -0.3367074   0.2134702  -1.4997272  -0.0799016  -1.2204667
   0.7226805   0.5664935  -2.0744917  -0.1748808   0.3271001  -0.0275502
   0.0221053   0.5388989   0.0475035   0.2901783  -0.0484328  -1.1749548
  -0.0706503  -0.0536036   0.0921334  -0.7038526  -0.1023927  -0.3920676
   0.4126553  -0.5969539   0.9120314  -0.2926544  -0.3636706   0.1038809
   0.9887606   0.3232683   1.2989514  -0.3508203   0.2032816  -0.2755242
  -0.1887938  -0.0724097  -0.1281896  -0.0294797   0.3098618   0.1858278
   1.1305249   0.0480861   1.7236411   0.1532069  -0.2453267  -0.0797426
   0.5666777   0.0666459  -0.0456256   0.1456190   0.0460341   0.0773659
   0.2489089  -0.3742865   0.7062637   0.0180702  -0.3162228  -0.0614283
   0.1433650   0.0396744   0.2357862   0.1005677   0.0106067   0.2993531
  -0.0245109   0.2598090   0.0885226  -0.0016915  -0.0286021   0.1204547
  -0.0513663  -0.0616770   0.1576567  -0.0887111   0.0352010   0.2671633
   0.7645553  -0.7192929   0.5967113   0.1127074  -0.2709046  -0.1401813
  -0.7834800   0.5952096   0.1885565  -0.2169353  -0.1349416   0.1744906
   0.2644357  -1.0324355   0.2885962   0.4659023   0.0519602  -0.0565150
  -0.4678148   0.2216822   0.2455627   1.8903669   0.0342131  -0.9814222
   0.0085479   0.4052246  -0.3080063   0.4350709   0.1183137  -0.7518859
   0.0970807  -0.5753472  -0.0128575  -0.2542897   0.7807347   0.5966365
   0.2656975   0.0743141  -0.0933217   1.2945197   1.6328779   0.0616361
   0.5551323  -0.3057628  -0.2406244  -0.3717248   0.0064069   0.0524425
  -0.0482456   0.2198429  -0.1221804   0.0137691   0.1907219   0.1456838
  -0.1103160  -0.2636548  -0.1446966  -0.4508888   0.4042661   0.4958533
  -0.0835974  -0.2873010   0.3329256  -0.4327828  -0.0254826  -0.5210007
   0.0040517   0.2010861  -0.2759181   0.5343681  -0.4900650  -0.7035460
   0.0193293  -1.2398217  -0.0934120  -0.0894289   0.1779214   0.1400855
   0.4791484   0.1052976   0.0292706   0.3340019   0.6265180   0.7834233
  -0.1497663  -0.1175362  -0.2495151  -1.0112656   0.5172966   0.7147305
  -0.0919319   0.2163523   0.1541780   0.3454308   0.1510988  -0.0623093
  -0.2145545   0.2831374  -0.1822978   0.8072205  -0.3383254  -0.0774630
  -0.3274423  -0.1665042  -0.1152217   0.2556284  -0.0009395   0.1303595
  -0.1250102  -0.1874776  -0.2331769   0.5380290   1.0369580   0.4068891
  -0.1513094   0.0545006  -0.2488820   0.2746829   0.0497546   0.1292109
  -0.0606086  -0.1474224  -0.3751244  -1.3551675  -0.1926853   0.2023375
  -0.5086156  -1.6217996   0.0873334   0.0460801  -0.2383189  -0.4991384
  -0.0303686  -0.0396719  -0.3020417   0.3926379   0.2475754   0.0383082
  -0.1333104  -0.2074814  -0.3983840  -0.3396598  -0.4662619  -0.2107171
  -0.1924103  -0.2774212  -0.1789631  -0.2076596  -0.8058925  -0.0455989
  -0.2633298  -0.4097536   0.4701189  -1.3994162   0.3575169  -1.0990049
  -0.1322252  -0.1524390   0.0791553   1.2102974  -0.7276082  -0.8898236
  -0.1024848   0.2157817  -0.6270135  -0.7781930  -1.0297530  -0.1421219
   0.0262282  -0.4270517   0.1996707  -0.6228773  -0.2924325  -0.6146716
  -0.0981679   0.0838361   0.0142697   0.0444452   0.5392797  -1.2101950
  -0.0064560  -0.1999281   0.0365003   0.1773820  -0.1109129  -0.0402399
   0.3889503   0.2477886  -0.1634739  -0.4306507  -0.2455659   0.1902516
  -0.1253955   0.0782945  -0.3131356   0.2713904   0.2268817  -0.8194276
  -0.2804758  -0.0612071  -0.0532927   0.1412991  -0.0267922  -0.7107998
   1.1892129  -0.7563708  -0.1795624  -0.1470036   0.1786894  -0.4550148
  -0.1859811   0.1366928   0.3720829  -1.0859727  -0.0283788   0.5218228
  -0.0751657   0.0298435  -0.0017997  -1.1129132  -0.9951149   0.8106441
   0.0950304  -0.0163709  -0.0210118   0.0726628   0.4101470  -0.2603088
  -0.1532779  -0.0382311  -0.0641382   0.4294814   0.4521593  -0.1929052
  -0.0370344   0.0117813   0.2480305  -0.0239111   0.1156066   0.3123453
  -0.1235765   0.1813609  -0.0090217   0.1721967   0.1023122   0.2354577
   0.1469200   0.1056912  -0.0181631   0.3405164  -0.5028247   0.1940290
  -0.0778114  -0.0447340   1.3324968  -0.9793994  -0.5959760  -1.4114821
   0.2042590   0.3375966   0.0737935   0.8250236   0.3398703  -0.4137463
   0.2766941   0.3226455  -0.1356414  -0.1121979   0.0152079   0.1068247
   0.0866813   0.0271345  -0.3542488  -0.8439784  -0.0808139  -0.8547782
  -0.0532413  -0.1118575   0.1153689   0.1803136  -0.4003786  -0.5686335
  -0.3151117   0.0204348  -0.1134585  -0.0544526  -0.5717439  -0.0580835
   0.2235086   0.1195305   0.0937582  -0.5460400  -0.9355260  -0.7705120
  -0.2643887   0.0334507  -0.2487522  -0.3276989   0.0344368  -0.2590732
  -0.3475576  -0.2678294   0.0180754  -0.0343948   0.0067660  -0.2538574
   0.8946462   0.0584847  -0.0456230   0.0410831  -0.3574133  -0.0337696
   0.3183052  -0.4660212   0.0489336  -0.2196287  -0.0407085   0.2903975
   0.3264620  -0.1282649  -0.2013267  -0.0359150  -0.0206073   0.5946561
  -0.0200021   0.3853316  -0.4265219  -0.6752973   0.5029897  -0.5637850
   0.3875331   0.0248365   0.2229971   0.7437295   0.5105661   0.5110738
  -0.1390644  -0.3234246  -0.3180863  -0.4483842   0.1052957  -0.1471579
   0.2191180   0.2481090   0.9069522  -0.9678340   0.9989879   0.3756693
   0.4162119  -0.0784400   0.3115689   0.7663046   1.5448675  -0.5336052
  -0.6152363  -0.7759022  -0.5014301  -0.0634978   0.1212928  -0.0037091
  -1.0763209   1.1586758   0.7900474   0.4927561   0.2496317   0.9574957
  -0.1228913   0.3695067   0.2195884   0.8203252   1.0558099  -0.1324505
  -0.5563938   1.3951334   0.5006076   0.6033311  -0.0390177   0.1779717
   0.3078318   0.0755651   0.0224557   0.1499485   0.0927994  -0.0418951
   0.1834410   0.0827247   0.1214510  -0.3393055  -0.6806172  -0.1275319
  -0.1553556   0.1929159   0.3082589   0.1232468   0.4751607  -0.1578311
   0.3445157  -0.3275971   0.0020932   0.2322264  -0.0255009   0.1187131
   0.2813604  -0.3546976  -0.0866715  -0.1900848  -0.3350230   0.4014095
  -0.2973862   0.2754080  -0.5045192   0.5873530   0.3151174  -0.6658936
   0.4956215   0.0278836   0.1430438  -0.3808646  -1.3213553   0.5173431
  -0.0248992  -0.2410457  -0.4471056  -0.4820186  -0.3598600  -0.7628951
   0.0074243  -0.4063047   0.0396254   0.7424241   0.2019734   0.0718796
  -0.0713799  -0.0638107   0.1526469   1.0489080   0.4875583   0.2104197
  -0.7610990  -0.0401052  -0.5577504  -0.2053235   0.1646563   0.6036173
   0.0352962  -0.1444713   0.1017216  -0.3480214   1.2027342  -0.8996149
  -0.5334880  -0.2590673  -0.8203989   0.0364566   0.2448409  -0.7412603
  -0.0355089  -0.0979673   0.0275080  -0.2303107  -0.0984864  -0.4155169
   0.1397055  -0.0542482   0.2142524   0.7207285   0.3192954   1.3980214
  -0.0320658  -0.2571933  -0.2147117  -0.5912865  -0.1635673  -0.2526707
  -0.1513101   0.2784758   0.1914204   1.0146722  -0.3312545  -1.2355648
   0.5922799  -0.2180982  -0.1321933   0.0115353   0.2153537   0.1446801
  -0.1373418   0.4081504   1.5312071  -0.0103767  -0.9547823  -0.2635531
   0.2107589  -0.2327948  -0.2722059  -0.5777399   0.0624922  -0.5343543
   1.1594638   0.5209838  -0.2881734  -0.0779163   0.2466286  -0.2562843
   0.2205057  -0.6848841   0.2458202  -0.0943287   0.1608387  -0.0397936
  -0.2388880  -0.0048148   0.0852851   0.2224625  -0.5483829  -0.2969478
  -0.8470724  -1.1009551  -0.3710611   0.1503636   0.1237497   0.3991545
   0.1916785   0.4836408   0.0864740   0.9720593  -0.1227551   0.5159208
   0.1780024  -0.0571477  -0.0270310   0.0681344   0.0540132   0.0320371
  -0.2595091  -0.3566877   0.3634036  -0.6246988   0.0968410   0.9960431
   0.2147819  -0.1610141  -0.1281320   0.4847185   0.9322528  -0.5140307
  -0.1595427  -0.1323488  -0.2255015   0.5196560   0.7117049  -0.7646324
  -0.1302853  -0.4375244  -0.1964837  -0.0041975  -0.0247486   0.0749963
   0.0876597  -0.0174943   0.3238734  -0.2715730   0.8983670   0.8623540
  -0.0993553   0.1428938   0.3978950  -0.4497373  -0.0065506   0.0372136
  -0.1471929   0.1955313   0.1712504   0.0318493   0.3540692  -0.3345224
   0.1046842   0.0430105  -0.0937751   0.0346208  -0.2764763  -0.1641050
   0.0420081  -0.2408604  -0.1095270  -0.2284077  -0.1743081  -0.4292821
  -0.2756455   0.4406863  -0.3004309  -0.1329272   0.0154904  -0.2534814
  -0.3124402  -0.0868341  -1.4082090   0.3856429   0.0314417   0.0268802
   0.0202627  -0.3197624  -0.0206599  -0.7521319  -0.1152359  -0.6987816
  -0.0605790  -0.3625681  -0.3751753   1.2731010  -0.0615173  -0.3193713
  -0.9669817   0.5728338   0.2337950   0.1280332   0.1852977   0.3062579
  -0.1119832  -0.0731374   0.0981165   0.8947963  -1.0339467   0.3102914
   0.3973408   0.1793493   0.2270966   0.2677892   0.0761468  -1.3715310
  -0.0173085  -0.0967216  -0.0701426  -0.2606034  -0.0861880   0.1690432
   0.1140501   0.1257353   0.1741383  -0.3505355  -0.6883582  -0.3373380
  -0.0257178   0.0693444  -0.3006704   2.0251809   0.4761122   0.1666297
  -0.3476689  -0.0439364   0.0482912  -0.3715811   0.0433962  -0.4088884
  -0.5591915   0.2522211  -0.2408270   0.2536945   0.1108060   0.1506328
  -0.9598576   0.1333881   0.7024551   0.1781948  -0.1737279   0.0918284
   0.0456768   0.0988140   0.2917075  -0.3271808   0.0614236  -0.1530490
   0.6677436   0.6690172  -0.5401877   0.2316358   0.0806945  -0.0205830
  -0.6615540  -0.6089528  -0.5608216   0.6551819   0.1868475   0.3001486
   0.4168450   0.0792319   0.3760328   0.0747001  -0.0499754  -0.0274427
   0.3173181  -0.0635903  -0.1881767   0.5835012  -1.2539119   0.0721210
   0.0389823   0.1708862   0.0220121  -0.3550510  -0.5362312   1.2103493
   0.1307154  -0.2408341   0.1187825   0.2874112   0.5734028  -0.4403467
   0.5643984   0.0472550   0.2787517   0.3216315   0.0434301  -0.2205395
   0.1717563  -0.1062147  -0.0919607   0.5165914   0.5420072  -0.3464630
   0.0297493   0.0789464  -0.2577320  -0.6748588  -1.5243266   0.7475842
  -0.4752186  -0.4997385  -0.2957577   0.3084137   0.2738247   0.2445971
   0.1412934   0.4703837  -0.2140782  -0.3238879   0.0670741  -0.0030750
   1.2120517   0.1306256  -0.6054057  -0.2882520   0.2544513   0.0307118
  -0.4545071  -1.7152289  -1.1351616  -0.2103525  -0.1628719  -0.0130539
   1.2274648   0.4949118   0.8279679  -0.1501591  -0.1142867  -0.3515872
  -0.2385659  -0.1201288  -0.2313134  -0.1240451   0.1427314  -0.2240998
  -0.1100198  -0.0591181   0.1331876   0.0132995   0.1180037  -0.7177832
   0.0386404  -0.1170818  -0.0577678  -0.6274534   0.2111583   0.9871924
  -0.3574794  -0.1507616   0.2462127   0.2973203   0.2450561  -0.0995612
  -0.8439614   1.2410830   0.1002579   0.0713659  -0.1034552  -0.2074968
  -0.6126692   0.0340282  -1.9406407  -0.1134521  -0.1039132  -0.8942282
   0.0597807  -0.0169249   0.2356356  -0.0187564  -0.2930479  -0.0157274
  -0.2677622   0.2932732   0.1313524   1.4243272  -0.2077545  -0.7274950
   0.0192367   0.5767221  -0.0612910  -0.4108319   0.1374012   0.0084466
   0.1944961  -0.1522603   0.2513983   0.1458272  -0.1075278   0.1383378
  -0.3021975  -0.9382159   0.4539216   0.1614717  -0.1390528  -0.2473685
   0.4152089  -0.8984761   0.5115803   0.1251886  -0.0289397  -0.2080759
   0.2950526   0.0786290  -0.1967091  -0.0488060   0.6297733   0.0650321
  -0.4828001  -0.0420514   0.3231595  -0.1447989   0.0739677  -0.1242654
   0.5789808   1.9566734   0.0576494   0.3843720  -0.2748195  -0.0533385
  -0.6498984  -0.6287181  -0.3990658   0.2000980  -0.2612176  -0.1175511
  -0.0900246   0.4603931  -0.0361723  -0.1480876   0.4045478  -0.1095511
  -0.3210157   0.4045489  -0.2597423  -0.2898166   0.8488865   0.3666564
  -0.3730489   0.5725387  -0.0591110  -0.4043068  -0.8526792   0.5161286
  -0.0091993  -0.0148544  -0.1291867   0.1037321  -0.2673567   0.0414130
   0.1254630  -0.0336997  -0.0822645   0.0272444   0.1763712  -0.1597905
  -0.1782975  -0.3631617  -0.2195371  -0.4903773  -0.2710703   0.7714593
   0.3216685   0.2452620  -0.0648319  -0.9473857   0.7133431   0.1539259
   0.0001212  -0.1061096   0.1394331  -1.1191104   0.2226976  -0.6238732
   0.4751933   0.2261470  -0.6643005  -0.2476342  -0.0669231  -1.2720102
  -0.3897188   0.3172489   0.1359940  -0.8434023  -0.1252005   0.5209230
  -1.0052812   1.3297215  -0.0353735  -0.0663650   0.0646791   0.7099124
  -0.1691656   0.2136130   0.0733036  -0.1713671  -0.0489384  -0.1994491
   0.1363694  -0.1785586  -0.0544832   0.1788679  -0.2724001   0.2591627
   1.1951864   0.0525668   0.6469620  -0.0304785   0.4596276   0.8908433
  -0.3113195  -0.0263741  -0.0196958  -1.1183037  -1.2584705   0.0504709
   0.2064891  -0.0387485   0.5989478   0.0212844   0.3351761  -0.2051185
   0.1745889   0.2286118  -1.5435920  -0.0344487   0.2049716  -0.2397851
  -0.1480825  -0.0718538  -0.0214639   0.6807240   0.8563811  -0.9553569
   0.2243511  -0.2703941  -0.4450419   0.1468613   0.1279285   0.1434699
  -0.1177273   0.0507408  -0.0668839   1.0282053  -1.2721558   0.2902123
  -0.0068551  -0.4047445  -0.2541056   0.3098572  -0.9426068  -0.0994198
   0.2580711   0.3610901   0.0266409  -0.0349890   0.4769433  -0.9065511
  -0.1193120  -0.1190963   0.1277723  -0.4480527   0.6418005  -0.6645813
   0.5513658  -0.2747978   0.0035620   0.1078783  -0.0872329   0.3561137
  -0.1133301  -0.4500887   0.1549111  -1.1705109  -0.7220919   0.0643149
  -0.1884021  -0.6870047   0.2789342  -0.3006995   0.4921761  -0.8419893
  -0.1712588   0.0814320   0.1141974   0.2733373  -0.2742416   0.0643425
   0.0564249   0.0195578  -0.1239390   0.3317572   0.4693840  -0.3055737
   0.1718282  -0.0972466   0.1560565   0.1873398  -0.0088045   0.0899964
   0.0804900  -0.1231213   0.3561595   0.5465292  -0.2434961   0.2604023
   0.0209342   0.2866748  -0.2460541   0.3838866  -1.5841992   0.6459001
   0.7830886   0.4429031  -0.6206762   0.7988557   0.3483012  -0.2158030
  -0.0111725   0.2403127   0.1149039  -0.2624690  -1.0529495  -1.7172741
   0.3077440  -0.7159881  -0.2469683   0.3622679   0.1745246  -0.1148132
   0.0698113  -0.0909446  -0.1002196   0.4871166   0.5322689  -0.2508362
  -0.2752060  -0.0227644   0.1758722  -0.4164274   1.0785011  -0.7114578
  -0.2333941  -0.3232197  -0.1583365  -0.8520081  -0.2358881   0.5673254
  -0.3701542  -0.2105131  -0.5243703   0.0151604   0.1176865  -0.0226263
   0.4839419   0.7709850   0.2127530  -0.2750112  -0.0235083   0.2501816
  -0.0073715  -0.4077959  -0.0779178   0.0745495   0.0834780  -0.2282646
   0.2523443   0.9313302  -0.6943020   0.1964136   0.3216591   0.0065419
   0.6312414   0.8397440   0.1073665   0.2015026  -0.2626154  -0.0217105
   0.5959892   0.9637927   0.1972493   0.5686664  -1.4743926  -1.1069809
  -0.0596463   0.1007650   0.4380754   0.1957548  -0.4834568  -0.6157176
  -0.1019753  -0.4426510   0.2306136   0.2443412   0.1351867   0.0704717
   0.1009436  -0.0949243  -0.1373813   1.1533368   0.1515222  -0.1979568
   1.2586202   0.2360605  -0.1286433  -0.6106155   0.4660610  -0.7247587
  -0.1903960   0.1574116  -0.0202075  -0.1144041   0.1098850   0.1409809
  -0.2629695   0.5183314  -0.1450407  -0.3016242   0.3160321  -0.3543261
   0.2429412  -0.2431544   0.2061505  -0.0205577   0.6448138  -0.2251641
  -0.0471033   0.1171204  -0.2110581   0.8954718   2.3936672  -0.4327526
  -0.2077511   0.4147054   0.0364448   0.0802013   0.0719043  -0.0476622
   0.5986147   1.4801937   0.1423169   1.5346659  -0.7426388  -0.1186247
  -0.1504509   0.4621276  -0.0968832   0.1257780  -0.0520399  -0.4226666
  -0.1884957  -0.1794516   0.0530200   0.2360278   0.5837811   0.3417792
   0.2038625   0.4766343  -0.0351823  -0.0308022  -0.0939244  -0.0190789
   0.3319042  -0.4021414  -0.1577874   0.0764094   0.2799520  -0.3473095
  -0.5048394   1.2200412  -0.1800328  -0.4700938  -0.1777651  -0.0043028
  -0.4991155   0.2004205  -1.1458134  -0.2741892   0.1868034  -0.0559189
   0.7253097   0.8181199  -0.2562980   0.4097769  -0.3119896   0.0784308
  -0.5373705   0.0790756   0.2355412  -1.2819787  -0.3541148  -0.7615196
   0.4266016  -0.3238247  -0.1635255  -0.4248834  -0.0868100   0.2176950
   0.0549013   0.3207915  -0.4508949  -0.0056642  -0.1278906  -0.1002175
  -0.1646415  -0.2438690  -0.1956957   0.0506583  -0.0278407  -0.1762587
   0.1602942   0.1741893   0.2264201   0.9594777   0.5352703  -0.4187839
   0.2082784   0.0650573  -0.0346632  -1.9153329  -1.1526575  -0.9105571
  -0.4985635   0.0530770   0.1590756   0.0476046   0.5419535  -0.1153831
  -0.3227654   0.2779331   0.4952803  -0.2657239  -0.1970200   0.0772177
   1.8494782   0.4242688  -1.1739673   1.0346999  -1.0538774   0.2944736
   0.0703850  -0.0118840  -0.3585534   0.1151377  -0.1186401  -0.3428869
   1.2155939  -0.4565259  -1.9316240  -0.0806583  -0.1795983  -0.5781263
   1.2212572  -0.2784833   0.4302580   0.4554140  -0.6511296  -0.3120303
  -0.0657095  -0.0002002   0.1107728  -0.1379364   0.5102377  -0.2973360
  -0.0471274  -0.4590474   0.8243520  -0.0191382  -0.3420747   0.2021943
  -0.0899812   0.7844433   0.7822508   0.1889871  -0.0882229  -0.0265696
  -1.6168551  -1.2390224  -0.1713518   0.4269271   0.2410988  -0.7052697
  -0.0904908  -0.1736608  -0.0296634   0.2309930  -0.2000221  -0.1060046
  -0.2857515  -0.1918390   0.0634760  -0.0620064  -0.0098033  -0.2099180
  -0.1349590   0.0010828   0.0445679  -0.1618851   0.1381371   0.1085681
   0.2374347  -0.8446991   0.5687151   0.0540386   0.0672188   0.2862679
   0.8097572   1.0156089  -0.8357498  -0.1704915  -0.0111115   0.2367705
   0.0686558  -0.7156616  -0.6437138  -0.0712859  -0.0188887  -0.0604112
  -0.7862233  -0.1401971  -0.1143517   0.2122126  -0.6951369  -0.2419549
  -0.7448932  -1.2365960   0.8510487   0.2139693   0.0418997  -0.4371447
   0.5056171  -0.4373992  -0.4162118   0.4051002   0.2693853  -1.1252907
  -0.1489529   0.1154277   0.8017102   0.1396767  -0.1192216   0.3434714
   0.0387810  -0.4067508  -0.1677376  -0.3573018  -0.1733432   0.1569701
   0.2618944  -1.0492354   0.2751093  -0.2270284  -0.0726290   0.0011909
  -0.6631990  -0.6239954   1.0389885   0.0723574   0.0414826  -0.0511975
  -0.7022635   0.1899014  -0.7448666   0.2179716  -0.3051510   0.2464069
   0.5087859  -0.7741222  -0.3838560   0.0843754  -1.2741464   0.9429031
  -0.2962267   0.8657873   1.3330572   0.0688392   0.0499289   0.3087874
  -0.1043768  -0.5516830  -0.5568187   0.3497713   0.0563341   0.0581842
  -0.2484607  -0.1562185  -0.0971739   0.4798995  -0.1983371   0.2710305
  -0.0884872  -0.2673764   0.0748884   0.0009287  -0.1345806   0.3075123
  -0.3309250   0.1722153   0.5526256   0.4895235  -0.9469547   0.6154934
   0.1506482   0.2400229   0.0128728  -0.0971038  -0.2975646  -0.0457673
   0.7466413   0.0726038  -0.1963499   0.6989187  -0.8267268   1.0923771
  -0.1456073   0.0848280  -0.0419718   0.5212681   0.3865784   0.1668723
  -0.6126316  -0.0754987  -0.8505864   0.2733634   0.0654722   0.3775417
  -0.0522261   0.3496641   0.0091750   0.1831484  -0.1421727  -0.1843787
  -0.2997159  -0.4034505   0.4095118   0.3410829  -0.1902605   0.4009201
   0.2589596  -0.3836726  -0.2215511   0.2467501  -0.1618850   0.1022954
   0.3729408  -0.1076290   0.5744929  -0.1343232   1.3951123  -0.1606001
  -0.1901775  -0.3594025   0.4998393   0.6220360  -0.0586047   0.1200303
   0.1323258  -0.3219743  -0.1624502   0.1119259   0.2473971  -0.0023371
   1.1739248   0.4940836   0.4536089  -0.1300182  -0.2089179   0.8292655
  -0.0402526   0.1671139   0.0492338  -0.3609540   0.1238855   0.3068930
   0.8748001   0.1198641   0.4853244  -0.4083013   0.7785496   0.6448538
  -0.3272727   0.2025854   0.0443724  -0.1157540  -0.2284692  -0.0723214
   0.1466129  -0.1565082  -0.1691742  -0.4866021   1.1216284   0.0379625
  -0.0671028   0.1834470   0.0798042   0.2450920   0.4363323   1.1233746
  -0.1896845   0.2478561  -0.2354704   0.0429795   0.0067851   1.4108957
  -0.2815584  -0.2380400   0.0587605  -0.1354335   0.1377212   0.1229835
  -0.8340930   0.2130639  -0.1413897  -0.4013658   0.2465662  -0.2039201
   0.1074648   0.0251679   0.4099988  -0.0584625   1.2673031   0.0435507
  -0.2182206   0.2696998   0.1346941   0.2477282   0.1644071  -0.3601944
  -0.1082094  -1.1880956  -0.2729611  -1.2695378   0.3705938   0.2450151
  -0.1926895  -0.1749785  -0.1046767   0.5935311  -0.7396522   0.8608477
   0.0180119   0.1355375   0.0866986   0.4541825  -0.1156647   0.2816386
  -0.0313029   0.0814158   0.1709502  -0.2005553   0.1877665   0.0003255
  -0.2852496   0.2161130  -0.3471570  -0.8908275  -1.3796279   0.3047649
   0.1206651  -0.2251856   0.1780116  -0.6306253   0.3492218  -0.3088212
  -0.2646236   0.2474450  -0.1266915   0.0133906   1.1390778   0.2244725
  -0.4505183   0.6740453   0.2406317   0.3426190  -0.1142667  -0.4692121
   0.2342423   1.9174183  -0.5432510  -0.1958956  -0.5244966  -0.3287613
  -0.0156388  -0.0712677  -0.0667841   1.1811549  -0.3712743  -0.8271704
   1.7360258   0.6245858   0.3485702   0.0327742  -0.2019043   0.1150357
   0.4867777   1.3442274  -0.3002193  -0.0418102  -0.2773636   0.0381811
  -0.0140268   0.1889232  -0.0968609  -0.3618942  -0.1116357   0.6775286
   0.3194531  -1.3026042   0.2473449   0.3677797   0.3961510  -0.4106592
   0.2132323   0.1007886  -0.1171097   0.0448847  -0.0007871  -0.2570367
   0.0502815  -0.4572087  -0.1407962   0.1974552   0.1196449   0.6292950
  -0.2159217   0.0294042   0.1873619   0.0149373   1.3686333   0.4254986
   0.1597506   0.1226817  -0.0134228   0.3700273   0.4808337   0.5415274
   0.2410499  -0.6609891  -0.2542932  -0.2521878  -0.2473468  -0.0792704
  -0.3467462  -0.1092244  -0.4325779  -0.0932740   0.2275656  -0.0948872
  -0.2617962  -0.1516233   0.3585518   0.0670600  -0.3212434  -0.1716950
   0.0684257  -0.7924305  -0.0094645  -0.1497457   0.2071174  -0.1437667
  -0.0077412  -0.4650841   0.4433219  -0.1342432   0.1768715   0.2855494
  -0.4702048  -0.8897694  -0.3406882   0.3249577   0.1966623  -0.2813990
   0.1984209  -0.1281782  -0.7535902  -1.4042146  -0.0254383   1.0567832
  -0.6659142   0.4686548  -1.6025995  -0.0536040   0.3871722   0.4086881
   0.5259878   1.4625616   0.6510775  -0.0618138   0.5841603   0.6468808
   0.5204973  -0.2925181   0.2194964  -0.2042737   0.3608005  -0.7189963
   0.0256748   0.2065318   0.2932216   0.2941058  -0.6186823   0.0114578
  -0.0198427  -0.0056682   0.1583619  -0.1520683   0.2894802  -0.1421887
  -0.0305513   0.0913821   0.3772156  -1.0911388  -0.6548459  -1.1304089
   0.0166512  -0.0075204  -0.1123358   0.3095883   0.7003513  -0.0031625
  -0.2414463  -0.3011476  -0.0392565  -0.1745001  -0.3679585   0.1173729
  -0.5612665  -0.0438170  -0.6219223  -0.3191207   0.1790373   0.0765483
  -0.0927413  -1.1207413   0.4610415   0.3295762  -0.1413666   1.1368548
   0.0267235  -0.2171381   0.3323783  -0.3337289   0.1930662  -0.0780823
   0.6818916   1.6199541  -1.3556222  -0.0849062   0.4526063  -0.4117250
  -1.3028021   0.2876598  -0.4832792   0.0616359  -0.3109918   0.1406426
   0.0044338   0.0613373  -0.3727789  -0.1873382  -0.5478565  -0.4784144
   0.1560455   0.0386145  -0.3164693  -0.2051662  -0.1035240   0.2367280
  -0.9779150   0.3993411   0.2745953   0.0046610  -0.6473508   0.8194460
  -0.2418042  -0.2739968  -0.3537775  -0.1841300   0.1764631  -0.0220705
  -0.0697211  -0.0895194   0.1075984   0.3849512  -0.3886140   0.4266660
   0.1558694  -0.1424196  -0.1461717   1.1011842   0.3844966   0.6168907
   0.0420124   0.0319008   0.1906313  -1.3336385   0.5988467   0.3557318
  -0.1792738  -0.1255362   0.0549877  -0.4904835  -0.1189358  -0.1070388
   0.7813558   0.1213127  -0.5778170   0.0420333  -0.9559438  -0.5987477
   0.5715263   0.0611800  -0.3228229  -0.2522877   0.2845981   0.4935963
  -0.4386709   0.0529537  -0.0536600   0.7541370  -1.0184761  -0.1211373
   0.2948903  -0.2184317  -0.0141505  -0.1665042   0.1086895   0.3840531
  -0.3735050   0.0826533  -0.2749510  -0.0065507  -0.2274057   0.1170860
   0.1822864   0.2515081  -0.2133457   0.3426730   1.1201565  -0.3836321
   0.0583073  -0.2420284   0.1540616  -0.2723421  -0.3687090  -0.0446380
   0.3581444   0.0799158   0.4646896   0.1287310  -0.6606519  -0.3605728
   0.0097927   0.6271806   0.6338784  -0.1024404  -0.9690161  -0.8994088
   0.1174337   0.1677847  -0.1502586  -0.1307384  -0.0156128  -0.0039619
   0.5232229   0.4869934   0.4677345  -0.4732997  -0.7920229   0.6189029
   1.0055795   0.1546378   0.2853693   0.2376057   0.3539207  -0.0407224
  -0.0573437  -0.1039653   0.0296157   0.3038595   0.2096906  -0.1624888
  -0.3846048   0.4399989  -0.8933652   0.4249697   0.2224483  -0.1439889
   1.1392232  -0.2338187   0.7603358   0.4943335  -0.2935688  -0.0360937
  -0.4721294   1.1790736  -0.0394621   0.4226721  -0.0305409  -1.3422769
   0.2184295   0.2220188   0.0950594  -0.0725932  -0.1614360  -0.1245601
   0.3622883   0.0384806   1.4829112   0.0190228  -0.0592716   0.2571399
  -0.1713856   0.0135459   0.1162940  -0.0775077  -0.0588084   0.0910282
  -0.2950687  -0.5639195   0.2012803   1.0032301   0.4390266   0.4889187
  -0.0454578   0.0741175   0.3078620  -0.3250370   0.2395937  -0.1993005
  -0.0913067   0.1770571  -0.1448613  -0.6838485   0.0248601  -0.4701971
   0.1488821   0.1827398   0.0333307   0.5240126  -0.0484958   0.0917384
  -0.0804996  -0.0456969   0.0415910  -0.0677649   0.3864904   0.0271867
   0.0259032   0.0089512  -0.1983297   0.3275301   0.3312987   0.1255269
   0.4680262  -0.9412558   0.5399629   0.2061946   0.4257178  -0.8943290
   0.1047562  -0.1648065   0.1022232   0.2562130   1.6698698   0.3143260
   0.0222199  -0.3514008   0.0567742  -0.0599265  -0.0154875  -0.3065960
   0.1572726   0.0736937  -0.1490327  -1.3442756   2.2049401  -0.1851363
  -0.3229599   0.0169791   0.1643112  -0.2287094   0.3411327   0.1727389
  -0.4181436   0.2149829   0.2509087  -0.6372565   0.1765737   0.5729611
   0.1717737  -0.4953150   0.0854248   0.6399774  -0.4029980  -0.2527414
   0.1058029  -0.4952865  -0.8656162   0.3849108   0.0877156   0.5183470
   0.2197039  -0.2934500   0.1313419   0.4372410   0.2668963  -1.6843864
  -0.1689439   0.5090640  -0.0118738   0.0759419  -0.0613732  -0.6189907
   0.4908616   0.0596767  -0.1669896  -0.0533981   0.3150894  -0.0884783
   0.1612392   0.0870946   0.0863884   0.6681712  -0.3329061   0.0007718
   0.0052131   0.1124156   0.3520537  -0.6402351  -0.8366016   1.0410258
  -0.0261885  -0.0806976   0.2935598  -0.1891331   0.2877664  -0.4412497
  -1.3190523   0.8770837  -1.9267459  -0.1776122  -0.2078433  -0.0595966
   0.3770036  -0.2823454  -0.0641647   0.6190930   0.2577883   1.3039306
  -0.3194475   0.5501914   0.4133359   0.3664898   0.0810842   0.0167769
   0.1293308   0.0586316   0.2122462  -1.2385519   0.0232861  -0.4059126
   0.3323669  -0.3499757   0.2851694  -0.1788960  -0.4163522  -0.0366502
   0.3421447  -0.0504270  -0.0044597   0.1721836  -0.1859997  -0.2152620
   0.4241594   0.4361690  -0.7268006   0.0692601  -0.1840428   0.1359905
  -0.1300135   1.5149726   1.5462978   0.1516750  -0.0484996  -0.1437687
  -1.5071321  -0.6533939   1.2127155  -0.0670705   0.0391896   0.0662919
  -1.3806484   1.2237843  -0.2393521  -0.4847869   0.2966462   0.0151824
   0.0357590   0.0381454   0.2591377  -0.1468415  -0.1728214   0.4091701
   1.8346900  -0.0786614  -0.9988612  -0.0866322   0.1957959   0.2123433
  -0.1724844   0.1159139  -0.1208486  -0.1389810   0.6494804   0.1005724
  -0.2367320   0.6315076   0.2497324  -0.0232376   0.0071570  -0.0970989
  -0.2308492  -0.7169466   1.0765066   0.1144870   0.2261625   0.2440734
   0.0876266  -0.5737906   0.2522305   0.0891243  -0.3121503   0.5280127
   0.0599156   0.2674682   0.2209922  -0.0232548   0.0681137   0.1129492
  -0.0841162   0.2035949   0.0474753  -0.3546763  -0.2257272   0.0779684
  -0.2932723  -0.1793719  -0.2261996  -0.0792256  -0.0514053  -0.0833584
  -0.6738423  -0.5705725   0.2266751  -0.0685033   0.1406251   0.4740200
   0.5669907  -0.0072520   1.5073142  -0.0696248   0.0853189   0.2965306
  -0.5464725   0.3883594  -0.5210076   0.0788181  -0.1852977  -0.4191493
   0.3188961  -0.1525943  -0.1534369  -1.0440129   0.6406575  -0.1853961
  -0.5205129  -0.2234161  -0.0043967   0.0335856   0.0766070   0.1474944
  -1.3108998   0.8168205   0.1050052   0.0302528   0.5080650  -0.8960827
  -0.6670380  -1.3255217   1.1001640   0.0211502  -0.3079646  -0.4032299
   0.1388823   0.2716323   0.2503050  -0.2204393   0.0449056   0.0089178
  -0.0026025   0.3331477  -0.0916651   0.8130164  -0.7267722  -1.5263473
   0.2438045   0.4396588   1.1748276   0.0959687   0.2484187  -0.1790703
  -0.0852625   0.6102359   0.8281071   0.0304480   0.1515862  -0.0439517
  -0.0339542  -0.1429789   0.2930688   0.3970801   0.1919884   0.4071954
   0.0853358  -0.2217148  -0.5540208  -0.0777851   0.1752525   0.0786457
  -0.4434815   0.3894974  -1.6048977  -0.0312853  -0.3985473  -0.4144804
  -0.1344764  -0.2014429  -0.0856217   0.0456899   0.3208621  -0.0778957
  -0.0363652   0.0282283   0.8197333  -0.6362248   0.3444899   0.3223691
  -0.5670335   1.0735122   0.0023151  -0.0190940  -0.1391051  -0.3566728
  -0.7745070   1.3100444  -1.0072756  -0.6032174   0.0298623   1.2731915
  -0.1793138   0.0328466  -0.0381447   0.1120850   0.6340879  -0.3290677
  -0.3501916   0.3104951   0.9659357   0.6661402   0.1121769  -0.2558294
   0.2123194  -0.0404961  -0.3630171  -0.1736899  -0.1307006   0.1395816
  -0.7072663   0.2226690   1.4127754  -0.8291713  -1.1055986   0.4630525
  -0.1571463  -0.0665696  -0.0974171  -0.1915837  -0.3028381  -0.2395326
  -0.1247359   0.1286400  -0.1545243   0.9090488  -0.1277751  -0.4915877
   0.3305704   0.0673929  -0.0151158  -0.6294204  -0.0691212  -0.1036839
  -0.0240951   0.5293191  -0.0317241   0.6309625   0.0074327   0.1741589
   0.2526724   1.7412149  -0.4433153   0.1752670   0.2899880  -0.0114803
  -0.1230860  -0.1324486  -0.1167957  -0.1807240   0.1632739   0.5230898
   0.1085338   0.0720905   0.2113387   0.2550145  -0.0069769  -0.0978407
   0.2280661   0.0078385  -0.1690017  -0.6936933   0.8800005   0.0463272
   0.1045346   0.2128872  -0.3191269   0.1913525   0.7787302   0.0148853
   0.1193413   0.0486534  -0.2941256  -0.8113921   0.1441748  -0.2080085
   0.9369003  -0.6433918   0.4748353   0.0953925   0.0010200  -0.1260536
   0.9364071   0.1504807  -0.6004286  -0.2111494  -0.5201316  -0.5003326
  -0.1547800   0.4753445  -0.3816114  -0.0731516   0.3518479  -0.3896108
  -0.1632572  -0.0641869   0.0518957  -0.1236728   0.0748066  -0.1152938
  -0.5419576  -0.0791578   0.3587472   0.0741774   0.1367746  -0.1553500
   0.4126443  -0.0613376  -0.0121347  -0.1259657  -0.0832107  -0.0347831
   0.3601131  -0.7116440  -0.4321083   0.1574709   0.1383337  -0.2586929
  -0.6540434  -0.0734472   0.3107654   0.2070257   0.0464593   0.0233814
  -0.3476636  -1.0535397   0.7936631  -0.0780450   0.1368656  -0.2106350
   0.2836199   0.0466827  -0.3936949   0.1703656   0.4401476  -0.6456270
   0.4050430   0.8170129   0.7514477  -0.0253275   0.0875226  -0.1896174
  -0.0193045   0.3338970  -0.2405292  -0.2065019  -0.7737744   1.3482937
  -0.1922705  -0.1111303   0.2081207  -0.2311174   0.9857577  -0.5079470
   0.4644829   0.0075694   0.2876350   0.6543866  -1.0054188  -0.3227627
   0.0415093   0.4604587   0.1242077  -0.0379437   0.0353575  -0.3723771
   0.0944348   0.1561568  -0.1598626  -0.3010003  -0.2320350  -0.1496323
  -0.1516643  -0.2489660  -0.3120808  -1.0825152   1.4413523   0.3377262
   0.0649430   0.2072189   0.1768312  -0.2491597  -0.1944318   0.0715222
   0.4289454   0.0513937   0.1978714   0.3989916  -0.1828807   0.2147518
   0.9747077  -0.1826764   1.2618847   0.7903969  -0.5400012  -1.1906126
   0.1766234  -0.0835654  -0.0673968   0.5085300   0.4957346  -0.8524576
   0.3072637  -0.1867600   0.2806251  -0.0173853  -0.1159013  -0.3680827
  -0.0383773  -0.0148705  -0.4022947   0.1740312  -0.1200662   0.0945730
  -0.1314786  -0.1435776   0.0655762  -0.3358588   0.0044294   0.1792875
  -0.3382466  -0.0292327  -0.2167458  -0.1045125  -0.0889345   0.0599477
   0.8013962   0.1721030   0.0609320  -0.6066595  -0.0575022   0.5451507
   0.0299020   0.2943066  -0.1807787   0.0268242  -0.0326946  -0.0962547
  -0.3422038  -0.2160679  -0.1158578  -0.7746908   1.3874247  -0.3120487
   0.1339342  -0.0344686   0.1817953   0.3591708   0.2290464   0.2517626
   0.3003318   0.4955823  -0.0760106  -0.1800902   0.2029337  -0.2279697
  -0.6087658   0.7037048  -1.4632442   0.0152537  -0.2801151  -0.3972307
  -0.2774309  -0.4425137  -0.2322810  -0.0005223   0.1112691  -0.3005789
   1.0871935  -0.3361409   0.4391303  -0.3913421   0.0995559  -0.3681674
   0.9490497  -1.4151670   1.5521539  -0.0204575   0.0274907  -0.0038966
  -0.3783330  -1.6549014  -0.4003603  -0.4114312   0.2628541  -0.1686908
   0.3204105  -0.0492619   0.1590756  -0.1810620   0.3078105   0.0387363
   1.0289335   1.0881756   0.8284786  -0.1803261  -0.2777066  -0.2507875
   0.8414939   1.1108280   0.0221016  -0.0059949  -0.1240376  -0.0674449
   0.8815886   1.1957522   0.6235408   0.2377481   0.5497436  -0.0111630
   0.2130343  -0.6419937  -0.9986846  -0.4584721  -0.1637542   0.9032017
  -0.2005082   0.2049644  -0.4418737  -0.1688068  -0.1385064  -0.0958358
  -0.9212209   0.8107903  -0.3202976  -0.6242772   0.0864518   0.4042198
  -1.0686371  -2.4851413  -0.9041935  -0.0316590  -0.1491077  -0.0159410
  -0.4679924   0.0529188  -0.1818576  -0.0760265   0.0031606   0.0275628
   0.6709580  -0.8177126   0.8292357  -0.0477472   0.3525149  -0.0548467
  -0.1003388  -0.3110960   0.1130578   0.0824268   0.1214070   0.5194208
  -0.5662984  -0.5131748   0.4141981   0.6864951  -0.0743691  -0.4785948
  -0.3749801   0.0358630   0.4465395  -0.0993203  -0.2372712  -0.3786044
   0.2714090  -0.2410398   0.7040436  -0.1000365   0.2084749   0.0822437
   0.5452953   0.1888361  -0.3254751   0.0394255  -0.3771099   0.4473889
  -0.0792768  -0.1473080   0.0015044  -0.5219481   0.0385981  -0.3828225
   0.2930427  -0.4213801  -0.1918080   0.5227055  -0.1191515   0.0732999
   0.3896506  -0.2452476  -0.4486485   1.0383221  -0.2586413  -0.2778004
  -0.1711899   0.2307643   0.1025005  -0.0865018   0.1121079  -0.3924636
   0.1628110   0.3110332   0.0204472   0.6393576   0.0932793   1.0679429
  -0.0979346   0.2499009  -0.0905423   0.7290295   2.4647118   0.6297619
   0.7280752   0.1093809   0.2706087   0.4018043  -0.6189746  -0.1475755
  -0.4295458   0.8668157   0.6996730   0.0445268  -0.3312508   0.1034262
  -0.1041178  -0.4297086   0.7214057  -0.3463672   0.2649026   0.3502121
   0.3964858   0.3846651   0.3041244  -0.0353521  -0.0880185   1.1867278
   0.1997759  -0.1528005  -0.1781851  -0.0560771   0.0571720   0.2498605
   1.0615705   0.0575876  -0.3744762   0.5119431  -0.4969235  -0.1591554
  -0.3194462  -0.2073146   0.2929002  -0.1683617  -0.3287985   0.3603062
   0.0847817   0.5368081   0.0964482   0.1511029   0.0347245   0.0856461
   0.3942598   0.7307496   1.5440921  -0.1051729   0.1077719   0.0742965
  -0.0860586  -0.7880047  -1.0203580  -0.1725780  -0.3084303  -0.0342820
  -0.0809265   0.7141106   0.4084103  -0.1252862  -0.2838062   0.6031572
  -0.2126609   0.2672630   0.0648730  -0.6219822   0.4581711   0.3325192
   0.3030494  -0.1245592   0.6022228   0.1206281   0.1309281   0.2317676
   0.5063852  -0.0516899  -0.3960386  -0.1022692  -0.1512181  -0.0753276
   0.2877045   0.2345602   0.1226104  -0.2780093   0.1192170  -0.2064267
   0.3894699  -0.0144681   0.1024153   0.5389281   0.9936020  -0.3216302
   0.5355969  -0.3402505  -0.1823664   0.0038738  -0.3047840  -0.7076860
  -0.2977873  -0.1379311  -0.2138746   0.3091115   1.3075187   0.2685390
  -0.1141754   0.4495588  -0.0204089  -0.2378523   0.2733132   0.0012194
   0.4303255  -0.3041488   1.1090845   0.9557993  -0.7965137  -0.6552635
  -0.0423829  -0.2662689  -0.2371743   0.7631116  -0.7117150   0.9741109
   0.0824969   0.1270673  -0.1544035  -0.1045187   0.1216141   0.1854382
  -0.9246613  -0.7890624  -0.9335887  -1.0265153  -1.7574877  -1.0021335
  -0.3774068  -0.0624723   0.1933958  -0.1376986  -0.2959814   0.7633040
   1.0937223  -0.8973302  -0.9470274   0.3176528  -1.2237899  -0.0571031
  -0.0250526  -0.2280040  -0.1161603  -0.0437029   0.0238823  -0.1331830
  -0.0905333  -0.0120281  -0.4303112  -0.3192704   0.7065863  -0.4854530
   0.2462802   0.1407795   0.0382366   0.1676777  -0.9586766  -0.3393024
  -0.3856205  -0.4288902   0.3038510   0.6049213  -0.7980462   0.7144507
   0.2296291   0.7781778  -0.4426542  -0.8585200  -0.6286923   0.7314726
   0.0745431   0.1622656  -0.0244673  -0.1812211   0.0301282   0.3008474
   0.3821540   0.0801413  -0.0108708   0.8841364   0.0832311  -0.6995460
   0.0791916   0.2464390  -0.1452381  -0.1941754  -0.4306984  -1.5044053
  -0.3089967   0.1268441   0.0357047   1.0252655  -0.1368815  -0.3988168
  -0.3078851  -0.3160630   0.1841785  -0.0982791  -0.6954701   0.1220779
  -0.3044923  -0.1666564  -0.3338798   0.2700739   0.4142921  -0.8351710
  -0.1578646   0.3135578  -0.3700377  -1.0658313   0.1389999   0.0998793
  -1.1433346   0.4727401  -0.2737918  -0.0825182   0.3127520  -0.0498257
   0.1872048  -0.0118884  -0.1028368   0.0732594   0.0423132   0.4010759
   0.2860117   0.0576838   0.3127982   1.5204703   0.1551620  -0.0653478
  -0.2569137  -0.0982547  -0.0487042   0.7876115   0.8482266   0.1667196
  -0.0515726  -0.0942219  -0.1710796  -0.7589642   0.7561102   0.2499705
   0.1002641  -0.2265182   0.1654193  -0.2210780   0.4947185  -0.6445402
   0.0604583  -1.4953758   0.3503243   1.1748256  -0.0081345   0.2260442
  -0.2478187  -0.1394586   0.1854292   0.1143463  -0.5071254   0.4315645
  -0.5222213   0.9729665   1.6098794  -0.0301851   0.1795826  -0.1371385
  -0.1711394  -0.2373671   0.0019644   0.1659015  -0.1156283  -0.3146863
   0.1999629   0.0521826  -0.0734356  -0.8182029   0.5349174   0.3052738
   0.0490836  -0.1724537  -0.0859662   0.3187625   0.3114337  -0.1617798
   0.0989548  -0.5964839  -0.0357110  -1.9133952  -0.2157335   1.3330590
   0.4412740  -1.0389537   0.7135201   0.2347022  -0.0041060  -0.2937304
   0.1124839   0.1996086  -0.3243117  -0.2356219   0.0404855  -0.2332123
  -1.3639167  -1.2335889   0.4112708  -0.4587349   0.2380542  -0.9468742
   0.8698474   0.5006423  -0.2597672  -0.3286766   0.4203980  -0.1370880
   1.3110439   0.5638541   0.2271627  -1.2766921   0.3989760   0.7514150
   0.1119322  -1.2626657   0.1388994   0.1512520   0.1515688  -0.3692968
  -0.0818986   0.1246360   0.0285212   0.1474360  -0.1724346  -0.0465361
   1.5826247  -1.4414410  -0.1027947   0.1160755  -0.1304839   0.2687601
  -0.3018029   0.5952595   0.4269749  -0.4324656   0.0057311   0.2374937
  -0.3285502   0.1381357   1.0241866  -0.4618696  -0.3988656   0.4754856
  -0.1564741   0.0115504  -0.0422872   1.3541914   0.6663890   0.4840032
  -1.2082578  -0.2016084   0.4788340  -0.0086938   0.0131223  -0.3786465
   0.3113210   0.0487504  -0.6630426  -0.7819450   0.7147339  -0.8642563
   0.0302360  -0.3147123   0.1809081   0.4736460  -0.4646984   0.6547704
  -0.0492339  -0.1065675   0.1714887   0.2006820  -0.1941719   0.1268310
  -0.7948751   0.4442911  -0.8666794   0.1883009  -0.1450709   0.2892600
  -0.1886311  -0.1368777   0.2347828  -0.6631531  -0.1130534  -0.4243246
  -0.4632973  -0.1399315   0.1942641  -0.0096478   0.1299224   0.2207238
  -0.1260876   0.1500610   0.0125007   0.0726604   0.1169746  -0.1394566
   0.3202041  -0.2206939  -0.3170909   0.8466309  -0.2097091  -1.3290676
  -0.0024635  -0.4413225  -0.5590327  -0.0141788   0.2198824   0.2008450
  -0.4968445  -0.5790120   0.4612216  -0.8928962  -1.0040099  -0.9337044
  -0.2457269  -0.0316235   0.0696877   0.9224331   0.9910127  -1.3440288
   0.0613900   0.6648559   0.4212654  -0.3869633  -0.0327309   0.1519038
  -0.5291168   0.3165767   0.9122042  -0.5017683   0.3373912   0.0505890
   0.2912306   0.0691503  -0.3216859  -0.1456776  -0.5515224   0.0243271
  -1.1745415  -1.1061011   0.5785023   0.2590934  -0.1106217   0.0628859
  -0.3720003   0.0921675   0.4856335  -0.3478204   0.3973363   0.0271730
  -0.4104500   0.3973148   0.1299049   0.3690560   0.0135174   0.5692560
  -0.4101536  -0.4398305  -0.3222180   0.3127235   0.1341533   0.2463050
  -0.0886981   0.1050320   0.2436461  -0.0180456  -0.2366599  -0.1289576
  -0.1480720   0.0527185   0.3021275  -0.2563115  -0.2040243  -0.0852881
   1.3197128  -1.1587572   0.6608693  -0.1455102  -0.5215079   0.1297751
  -0.4889624  -1.4295082   0.2663485   0.1963348   0.3565130   0.2703237
   0.0983844   1.9310807   2.1039553   1.0726034   0.4449720   0.6296151
  -0.0124253  -0.0691523   0.0152807   0.4302975   0.9297212  -0.4551384
  -0.0289701   0.1263385   0.1171697  -0.4330103   0.4781739   0.6053828
   0.2522095  -0.4584434   1.3424066   0.3413418   1.2851054  -0.8548930
  -0.0279692  -0.0214535  -0.4406410  -1.0160429   0.7628274   0.4807080
  -0.2443109   0.3798265  -0.0680630  -0.5320068  -1.3959757  -0.6803808
   0.2533553  -0.1026900  -0.1818724  -0.0165572   0.1160913  -0.2291383
  -0.0482215  -0.0966182  -0.2440421   1.9326052  -0.2988483  -0.4805624
   0.2668219   0.1489668  -0.1029941  -1.1628475   0.0094994  -0.0034076
   0.1834529   0.2937587   0.0078684   0.6834015  -0.7583174   0.9004744
  -0.7757959  -0.2130710  -0.7730771  -0.2336300  -0.4102174  -0.0379294
   0.3144035   1.1402513   0.1047681  -0.0928173  -0.1391029   0.3172280
   0.0288672   0.2042121  -0.0192518   0.0221615  -0.0379682   0.5686234
   0.0387582  -1.0350163   0.3253445   0.1249226   0.3623238   0.1883700
   1.3840928   0.6660047  -2.2043222  -0.2479023   0.0374678  -0.4113650
  -0.4941389   0.7625324  -0.2493518  -0.8144534  -0.1664758  -0.4534667
   0.4283509  -0.0611646   0.0315954  -0.2394345  -0.4716824  -0.1982154
  -0.1433701   0.2549909   0.0520289  -0.3910378  -0.1673984   0.8221469
   0.1210995  -0.2508525   0.4313892  -0.1438284  -0.5042519   0.1700165
  -0.2500958   0.2626331   0.1113597  -1.0485360   0.5690023   1.0006045
   0.5069534  -0.4489688   0.6212876  -0.8507115  -0.8926206   0.8876345
  -0.1332428  -0.1753535  -0.2080365  -0.0634655  -0.3179411  -0.0659277
   0.2006765  -0.0027360  -0.3154582  -0.3460697  -0.8352083   0.0727592
  -0.2769912  -0.1255718  -0.1118364   0.1780846   0.3147896  -0.5809681
   0.0982669   0.1095102   0.1343159  -0.3235353  -0.1402177   0.2300667
  -0.1960542   0.2252029   0.2837134  -0.2790540   0.3174037   0.4929651
  -0.3186055   0.1778126   0.2674500   0.6474548  -0.5820534  -0.6476892
   0.2186091   0.1656802  -0.0110455  -1.1546692  -0.7562447  -0.9715977
   0.1136150   0.0458358   0.0245556   0.2341772  -0.0958051  -0.2194228
  -0.2460415  -0.0011246   0.0394678  -0.0346782  -1.1455047   0.3038701
   0.0929161   0.0258757   0.5099338  -0.6015353  -0.5696960  -0.3144460
  -0.2727307   0.1607973  -0.1698857  -0.2189002   0.1399795  -0.1478359
  -1.2124385   0.5693267   2.0232885   0.0540499  -0.0040535   0.0516339
  -0.7313956   0.7905399   0.1857644   0.3955235   1.3059377   1.2078607
   0.0096646   0.2344970   0.3308962  -0.1812341  -0.8795401  -0.1275525
   0.2536580   0.3103333  -0.0067046  -0.2788149   0.4880416   0.2836035
  -0.7072399   0.3183181   0.9074388   0.6392590   0.3288915   0.9240425
   0.0872103   0.0226376  -0.1044499  -0.2523385   0.2087233   0.0979580
   1.1596030   0.7198566  -1.2891219   0.3001885   0.0927767  -0.0590062
   0.0434745   0.0592482  -0.1505752  -0.1247286  -0.1329927   0.1587572
  -0.2230810   0.1814409  -0.0332925   1.3325582   0.2549227  -1.2426327
  -0.2548199   0.1514841   0.2196679   0.4058884   0.7453418  -0.1470063
  -0.2639329   0.1870232   0.2577289  -0.0491780   0.7210583   0.5140000
   0.3123531  -0.8961553   0.8243035   0.0087816  -0.0036293  -0.1525118
  -0.0662189   0.1280366   0.1087266  -0.0053045   0.0158860  -0.2968479
  -0.2361278  -0.2630371   0.3638978   0.5992362   0.3742611  -0.1057736
  -0.1390254  -0.2338783  -0.1389065   0.2635148   0.2477985   0.0074368
  -0.1997694   0.0678644  -0.1491040   1.7643238   0.5101597  -1.5388762
  -0.2747322   0.0448530   0.4802864  -0.3908218   0.6637589   0.1669196
  -0.0540649  -0.1324788   0.0490180   0.6273675   0.9576137   0.2257219
   0.2556422  -0.0939905  -0.0944510   0.5507281   0.3293650   1.0175216
   0.6256629  -0.8430993  -0.0818807  -0.6561174   0.7875259  -0.6952772
  -0.1828229   0.0005325  -0.0036294   1.4321041  -0.8665328  -0.1583680
  -0.0664233  -0.1266360  -0.0552097  -0.1916881  -0.0718587  -0.0785936
  -0.0552705   0.0214290  -0.1270179  -0.9865744  -1.2540571  -0.4091746
  -0.2796787  -0.4603258   0.0019068  -0.4151348   0.2983897  -0.2179391
  -0.0213311   0.5058626  -0.2307940   0.7478857  -0.3046164   0.0728957
   0.1574933   0.4776929  -0.0498772  -0.0037173  -0.0019722  -0.4919194
   0.4116530   0.1349523   0.2749803   0.1277719  -0.1557991  -0.5322066
  -0.2211680   0.1711868  -0.0903062   0.0484345  -0.0232659  -0.4696155
   0.2484653   0.3011739  -0.1528348  -0.2088406  -0.0945241   0.1017784
   0.3186750   0.3005775   0.1037472  -0.3331247   0.4209466   0.0186747
   0.2219622  -0.3287402   1.0788152  -0.1549938  -0.1295402   0.2311320
   0.3607173  -2.0355947  -0.7015323   0.1507401  -0.0099010   0.1564080
   0.2033748  -0.5155770  -0.6114731  -0.6846580   0.1274183   1.5546848
   0.1251608   0.0733699   0.2386416   0.4387177   0.1197577  -0.3304965
  -0.1922425   0.0270401  -0.0281275  -0.3247656   0.7257781   0.7750234
  -0.0380426  -0.1363504   0.3491236  -0.4642083   0.6427603   0.7170237
   0.0883062   0.0813672  -0.1915710   0.8885798  -0.0644468  -0.1426062
   0.2064584   0.1412967  -0.2943375   0.1786210   0.4043613  -0.0947285
   0.0331817  -0.1706672   0.0449075  -0.0799443  -0.4741900   0.0621700
  -0.1012982   0.0012318   0.0510136  -0.0264031  -0.3251122   0.3108361
   0.6001460  -0.4859609  -0.0739731   0.6365465  -1.4434356  -0.5083962
  -0.0353720  -0.0039271   0.5611721  -0.1689653   0.0144791  -0.1226886
   0.0083498   0.0696731   0.2924804  -0.0080551  -0.1401477  -0.1847979
   0.1903178   0.0678641   0.1203037   0.0172719   0.4910504   0.0382546
   0.6441377   0.5205945  -0.0776942   0.0672381   0.0191782   0.3503866
   0.3931896  -0.0852127   0.6399277  -0.0380199  -0.0820944   0.0297090
   0.0209031   0.1595262  -0.2812347  -0.1683101   0.8584822  -0.4841466
   0.0789601   0.1125650   0.2685171   0.5593830  -0.7603688   1.3268094
  -0.1357119  -0.1058548  -0.0790355   0.6778275  -0.3335428  -0.0480441
   0.4266424  -0.1970146  -0.2918700   0.1435124  -0.3621956  -0.5001549
   0.1718956  -0.1439917  -0.0270380   0.0871161  -0.1606018  -0.0892502
   0.0613030  -0.1948026  -0.0382917   0.0403412   0.0481284  -0.1862635
  -0.6249526  -0.1650095  -0.1193568   0.3814289  -0.1736088  -0.0279119
  -0.1367780   0.3251041  -0.0567638   0.1458092   0.1852932   0.4209878
  -0.1302317  -0.2213955  -0.0955078   0.3934870   0.0722542  -0.1939242
   0.2151446  -0.2188878   0.2639171   0.1950667  -0.0223208   0.0850495
   0.1947699  -0.0798857  -0.3319393  -0.2223971  -0.1660851   0.2597225
  -0.6463704  -0.4150221  -0.0145932   0.2246104   0.5413422   0.4002972
  -0.0680359   0.5431819  -0.1966140  -0.4759238   0.5795954  -0.3076109
  -0.1481842  -0.2135290  -0.0068302   1.0155751   0.4881355  -0.4109802
   0.0525274  -0.1340136  -0.3307425   0.2251156  -0.5439316  -0.0990443
   0.1787382   0.0614423   0.2547478   0.2902113   1.1454897   0.9464504
   0.0634471  -0.1364126   0.2459763  -0.1054574   0.0944159  -0.2952669
  -0.0494540   0.3881488   0.1355731  -0.2249933   0.1395868  -0.0327224
   1.1772327   0.3003214   0.3375734   0.0471918   0.6039610   0.5112423
  -0.1506217  -0.1898635   0.3243232   0.2873667  -0.0202676   0.0661917
   0.0102725  -0.1301997   0.0361107   0.3525837  -0.1189560  -0.3094107
   0.0515453   0.0088684  -0.1649311   0.0451518   0.4552050  -0.3034584
   0.0957714   0.4313681  -0.2731337   0.2826533  -0.0361268   0.3093032
   0.0613774  -0.0208720  -1.2856686  -0.0506048  -0.0031820   0.1118541
  -0.1496531  -0.0203843   0.0208799  -0.3927135   0.7465221   0.0375747
  -0.2087480   0.0758167   0.1237280   0.2472517  -0.5765911  -0.4165930
   0.3397950  -0.1274305  -0.3263423  -0.6170544  -0.7076452  -0.6383504
   0.3037182   0.2581853  -0.0745120  -0.9698639   0.3630427   0.2868361
  -0.1632780  -0.4308469  -0.3979103   0.0569263   0.2990391  -0.1188588
   0.0078214   0.2600043  -0.2828676  -0.2601233   0.1176047  -0.2903776
   0.0726530  -0.1028984  -0.3747084   0.2186590  -0.0818677   0.1565205
   0.2677222  -0.1087106  -0.0322100   0.1527845  -0.0063420  -0.1691107
  -0.1372746   0.2745245   0.1749140  -0.1539796  -0.0770438  -0.1083844
  -0.1926230  -0.0985287   0.2170023   0.1791933  -0.0760049   0.3575971
   0.3851144  -0.0065683   0.1084378   0.5683251  -0.3546115  -0.3897164
  -0.2071005   0.4453775   0.7174436  -0.0311289   0.0652439   0.1674944
  -0.0843740  -0.4699579  -0.1648848  -0.7315684   0.3650333   0.4455386
  -0.0890403  -0.0605831  -0.2421679  -0.4083815  -0.3966119  -0.6219881
  -0.1858032   0.0928230   0.2686026  -0.0334031  -0.2621345  -0.0005316
   0.4010765   0.5490099   0.0031514  -0.0444482  -0.8534286   0.0331528
   0.1127067  -0.0796628   0.0765540  -1.8039405  -0.1387956  -1.0866738
  -0.6380931   0.9510202   0.1121977  -0.2965926   0.3236066  -0.1767008
   0.7899461   0.2224905  -0.6785465  -1.4804220  -0.1925861  -0.6428088
   0.1261275  -0.1241580   0.0505910   0.8973042  -0.7573236  -0.7503899
   0.6829365   0.0869335   0.5143114   0.0205061  -0.1849996   0.1174393
   0.1659341  -0.9253918   0.1826017  -0.5086971   0.0184028  -0.1444781
   0.1756732  -0.2011216   0.0558185   0.3303503  -0.7196838   0.0457378
   0.7200886  -0.3780881  -0.0960492  -0.2729808   0.0508187  -0.0976665
  -0.6357995  -1.2479614   0.5286434  -0.2349693  -0.0196116  -0.4975135
  -0.0375374  -0.0057511  -0.1737051   0.6504501   0.1205687  -0.3908436
   0.0251906  -0.6426612   0.0709280   0.2255998   0.1058781   0.0920273
  -0.0347584   0.3443642  -0.2965269  -0.1457379   0.4302854  -0.6588894
   0.2624562  -0.1863784  -0.2601667  -0.2136640  -0.7819380  -0.7279163
  -0.4399476  -0.1306941  -0.3724296  -0.2747727  -0.0658105  -0.4581393
  -0.6022066   0.3052056   0.3723638   0.2836252  -0.1100989  -0.4776807
  -0.1170868  -0.5469339   0.3541272  -0.0523933  -0.4694005   0.4127337
  -0.1527923   0.2151281   0.6420962   0.2620022   0.0899369   0.3797850
   0.0244301   0.2507912   0.6271471   0.8600230  -0.2389542  -0.1745599
  -0.1200672  -0.1397852  -0.1376871   0.1241392  -0.2194829  -0.0423414
  -0.5316800   0.1804062   0.2569189  -0.4271166  -0.0266149  -0.1565327
  -0.7180037  -0.8182278  -0.1796246  -0.0858616   0.2410224   0.3598070
   0.1996290   0.1305418  -0.0917649  -0.5701370  -0.5146574  -1.1166709
  -0.1077386  -0.2563699   0.1850924  -0.3264799   0.0348866  -0.1529718
  -0.8207222   0.1869727   0.1867251   0.2552192   0.1806645   0.1560688
   0.3603258  -0.0275771   0.0889366   0.7173161  -0.5004484   0.9730032
  -0.2336418   1.0380730  -0.7153278  -0.1880377  -0.1078797  -0.0832832
  -0.7940752  -0.2634875   0.2748632   0.6697597   0.1617888  -0.6436146
  -0.0026927  -0.0979153  -0.1746808   0.0923409  -0.0881602  -0.1384916
   0.0265029   0.1153738   0.0030284   0.0101668  -0.1084231  -0.3705348
   0.3939686  -1.3706563  -0.4446383  -0.0431129  -0.0372647  -0.1685387
   0.3132477   0.0372861  -0.0115403   0.7652188  -1.6332602  -0.5497355
   0.0499269   0.7108999  -0.9567640   0.2730228  -0.1360181  -0.1220344
  -0.2740340   0.6005967  -0.6444883  -0.7590844  -0.4666305  -0.4657599
  -0.0635238  -0.1738178   0.1163753   0.6586572  -0.6848500  -0.2393311
  -0.5748382  -0.2584322  -0.5080224   0.0558080   0.2434055   0.1458422
  -0.8447102  -0.2251490  -0.6270223   0.4319091   0.3758264   0.3566367
  -0.0088096  -0.0211517  -0.1789664  -0.0945781  -0.1425538  -0.3654677
  -0.4666907  -0.2362974  -0.0448193   0.0046375  -0.0037914  -0.1123505
  -0.1474465   0.6607794  -1.3860209   0.5994640  -0.4386590  -0.3872088
   0.1641100   0.1147773   0.0327583   0.2476028   0.4213623   0.6101552
  -0.4132328   0.3357011  -0.1980365   0.0254860  -0.1137011  -0.0506875
  -0.9946607  -0.5626501   0.9149024  -0.4979529  -0.4180940   0.6042147
   0.1105351   0.0773114  -0.1393458   0.3158655   0.4009468   1.2434070
  -0.8870313   0.3050675  -0.5570012   0.0046668  -0.0986774  -0.1016292
  -0.7458310  -0.4705789   0.0124238   0.8373565   0.0024133  -0.6630574
  -0.2247715   0.1440104   0.5524330  -0.3042173   0.3320953   0.6173043
  -0.0253278   0.0167455   0.5412966   0.0552121  -0.2325837   0.0888949
  -0.2386803   0.9812272  -0.8724289  -0.0479357   0.1758326  -0.2133499
   0.0417564   0.0778411  -0.1614182  -1.0761928  -0.1816734   0.5019177
   0.4915333   0.1297498   0.0312789   0.2972839  -0.0657956  -0.0907307
  -0.7407737  -0.2699738   0.2997540  -0.2284662   0.1201329   0.3153248
   0.0845771  -0.2483756   0.2265393  -0.4671165   0.5608736   0.2110039
   0.1400798   0.0614268   1.4636852   0.2637251  -0.1887919   0.0170705
   0.2373349   0.6052881  -1.0431042  -0.4723351   0.3343892   1.0683249
   0.3458507  -0.0465434  -0.2486588   0.2385997  -0.0337955  -0.1339111
   0.9355103  -0.9983334  -0.7998441   0.2673468  -0.1838443  -0.1773872
  -0.2449152  -0.3303263   0.2377129  -0.4144096  -0.3993388   0.8627351
   0.3962886   0.3280633  -0.1420209   0.7431035   0.0888996   0.0877524
   0.5985297  -0.3098453  -0.3769084   0.0295572   0.0090465   0.1006787
   1.3972204  -1.4200457  -0.1219598   0.1647112   0.1287589   0.0247713
  -0.0393514  -0.2180154   0.1851328  -0.1108263  -0.9797755   0.1715037
  -0.1879060   0.3685852   0.2242147   0.2475918  -0.1051027  -0.1216486
   0.6720673   0.0129379  -0.0195116   0.5749471  -0.0691588   0.0304956
  -0.2208976   0.4559071  -0.0957022   0.0410218   0.4237926   0.2066513
  -0.3297335   0.3467665  -0.5934622  -0.1102135  -0.3787715   0.0008584
  -0.4386338   0.7839781  -1.3912459  -1.0155394   0.2982236   0.4980120
  -0.0741175  -0.0151509  -0.0523457   0.0636677   0.2049053  -0.5245373
   0.3868099   0.0150622  -0.2673722  -0.1917493   0.0542516   0.1266592
   0.1089544  -0.0864018   0.2881698  -0.5566051   0.3101650  -0.1472311
  -0.0263658   0.1013740  -0.4127013   0.7978356   0.1895532  -0.3967982
   0.2801827  -0.3087740  -0.4079399  -0.1125201  -0.1391335   0.3139248
   0.0198697   0.0952514  -0.1192854   0.1991245  -0.0154763   0.0669927
  -0.0164674   0.1283369   0.2033319   0.1830989   0.4409831   0.1233109
  -0.1933121   0.1184430   0.1400245   0.0096789  -0.1540164  -0.0999098
   0.0866481  -0.3666371  -0.3741262  -0.2945967   0.3085309   0.2213424
  -0.2882295  -0.2053551   0.0798732   0.2610397  -0.1355533   0.1744916
   0.8004008  -0.0527273   0.0729339   0.0599046   0.1917461  -0.0928341
  -0.4928974   1.3402431  -0.3708761  -0.1066699  -0.1222646  -0.9451746
   0.0508076  -0.3169544   0.0908877   0.7103501  -0.4198692  -0.0534641
   0.0228363   0.1188706   0.0387863   0.0123352   0.1362030   0.2448032
   1.1289000  -1.0281154  -0.9410887  -0.0519707   0.2687261   0.3334108
   0.0980874   0.0514454   0.0448559  -0.7721284   1.0971057  -0.0161573
  -0.1365727  -0.4385704  -0.6448861  -0.0486255  -0.0931472  -0.0457602
  -0.7009245   0.0962061   0.7756117   1.1303642  -0.1292989   0.1086262
  -0.3783467  -0.1050418   0.0647868  -0.0300393  -0.7630613   0.2631349
  -1.2184141   0.0751648   0.1103038  -0.1035988   0.2136577  -0.1392372
   0.9127378  -0.2625534   1.2615891   0.7445108   1.6079864  -0.2893053
   0.0855438   0.3222917   0.2897451  -0.0166058   0.1125001  -0.1185505
  -0.1348573  -0.4264399  -1.0532609  -0.2034029   0.1812359   0.0910074
   0.2395950  -1.3450929   0.6884547  -1.3594443   0.3877423   0.3322276
   0.2179513   0.1713821   0.0787643   0.2000384   0.0877435  -0.0194769
   0.4491315   0.1120270   0.1606075   0.0035331   0.2388529  -0.3496310
   0.9792432   0.4955503  -0.1986415  -0.1869266  -0.4396187   0.4303229
  -0.3564705  -0.3822065   0.1810682  -1.0910289   0.0167328   0.5416599
  -0.5925251  -0.5210833   0.4356612  -0.0036707   0.0119148  -0.0424735
  -0.3249789  -0.0598468  -0.1523755   0.0565748   0.0192348  -0.0325555
   0.2329844  -0.0972264  -0.1421938  -0.3448918   0.5984952   0.0157002
  -0.1008362   0.0804390  -0.9479910  -0.1212643  -0.1290763   0.1017154
   0.9047941   0.3250227  -0.4152723  -0.9391748  -0.1469017  -1.0160433
  -0.1267676  -0.1342775  -0.2156887  -0.0469228   0.1007260   1.1675686
   0.0215482   0.4383113   0.0027379   0.0958941  -0.3288735  -0.1182892
   0.3054973   0.1215991   0.2609992  -0.2197082  -1.0555434  -0.6623376
   0.1322108   0.1583632   0.0959311   0.3317857   1.1203177  -0.8304241
   0.4480675   0.4893270   0.1342720  -0.1789261   0.0061426  -0.2518415
  -0.4664131   0.1038690   0.2766860   0.4223722  -2.1234827   0.3035434
   0.0965719  -0.0966334  -0.3502585  -0.2788816   1.0606616   0.4402090
   0.5941850   0.0383398   0.2169845  -0.1635970  -0.2022169  -0.0583583
   0.5610690  -1.3205396  -0.8502038  -0.1121110  -0.3940055   1.0136456
  -0.0972991   0.0223757  -0.0077952  -0.4777540  -0.8387168  -0.2980411
  -0.6255953   0.4259209   0.9040377   0.0571131  -0.0084050  -0.3646263
  -0.6199051  -0.1728238  -0.5780838  -0.5419664  -0.3209156   0.1767643
   0.0882295   0.2014167   0.0066547   0.2022756  -0.2271913  -0.2533394
   0.5757723   0.1688164   0.6790039   0.2793924   0.0969363  -0.1406156
   0.4402518   0.2323858  -0.4395866   0.6086122   0.3358773  -0.7006443
  -0.0935038   0.0028400  -0.1466917   0.0165548  -1.3224876   0.4599989
  -0.2904620  -0.1516645  -0.1508255   0.0432454  -0.0974731   0.2221183
  -0.2537103  -0.6572607   0.5623945   0.7084998  -0.8605148  -0.3559417
   0.0156649   0.1093678  -0.0576150   0.2108387   0.1814210  -0.6674937
   0.6252032   0.7039924   0.1591396  -0.2359994   0.0533875   0.1016851
   1.0358464   0.6649058   0.2705514  -1.2577912  -0.2501975  -0.8928064
  -0.0490929  -0.0181000   0.0582993   0.5474187  -0.4775596  -0.0088805
  -0.3950822   0.3071495   0.3029947   0.0498537  -0.1367355   0.1234746
   0.4368399   0.0840034   0.6250575  -1.1165231   0.7058890  -0.0495999
  -0.1108573   0.0990442   0.1242931   0.3054132  -0.2758466  -0.1103315
   0.3814327  -0.1611564  -1.0006904   0.2827411  -0.0146395   0.4694197
  -1.7419039   0.3221513  -0.0291533   0.5895828   0.0447638   0.8413818
  -0.0677114  -0.0296907  -0.0502556   0.4366752   0.1125769  -0.5759879
  -0.1349859   0.0573795   0.6367221   0.0800949   0.2107187  -0.1104584
   0.4078270   0.2734795  -0.7198809   0.2060633   0.2344741  -0.3441616
   0.1231170   0.0543380  -0.0624951  -0.0408760  -0.1149862  -0.0066476
  -0.3753246  -0.1752885  -0.0750079  -0.0362000  -0.1683216   0.1330633
   0.8855801  -1.1545619  -0.3846394   0.3928124  -0.5280487  -0.1871208
  -0.2812065  -0.1940416  -0.0940384  -0.3148301  -0.4387050  -0.5065432
  -0.1717679  -0.2595693   0.6259017   0.2907512  -0.1882349   0.1321328
   0.1503270  -0.9777779   0.1414460  -0.1575404  -0.0939187   0.5616376
  -0.0386140  -0.1524031   0.0516625  -0.4825685   0.5933364   0.1998950
  -0.5527393   0.6276219   0.1528800   0.0551699   0.0639301   0.2222322
  -0.0718215  -0.0257067   0.2894596   0.2649889  -0.0777241   0.1091402
   0.0080435  -0.0322280  -0.2448963   0.6158099  -0.1908154  -0.2170909
  -0.4150533   0.1392927   0.3847584   0.0383897  -0.3357959  -0.1737339
  -0.6187114  -0.5488719   1.3822589   0.5890170  -0.1684116   0.2262713
   0.1090522   0.1388552   0.0447724  -0.5346446   0.6851696  -0.1761996
   0.0098258  -0.4381189  -0.1774189   0.1652687   0.2581159  -0.1137951
  -0.6324529  -0.9179582  -0.7818371  -0.7605372  -0.4896772  -0.6623830
  -0.2436007   0.1004359  -0.0163843  -1.1232021  -0.5771738   0.7844906
  -0.3370324   0.2458920   0.0937697  -0.3095015   0.3824516   0.0564494
  -1.8591903   1.6449910   0.4079453  -0.1169198   0.0820312  -0.1085440
   0.3252048  -0.1571812   0.1917239  -0.0060639  -1.1408941   0.8733297
  -0.5761131  -0.0678098  -0.5836210  -0.3109607   0.0168887  -0.1476490
  -0.7566055  -0.6951823  -0.0323268  -0.6852749   0.6593690   0.4447142
   0.0197439   0.3902143  -0.0135521  -1.8518277   0.2835007   0.5422640
  -0.7345566   0.5887092  -0.1791590   0.3359718   0.1647556  -0.0793844
   0.6716059  -0.1371270  -0.7693756   0.3791740   0.1342041  -0.0101944
   0.0727631  -0.3550608   0.1463451   0.0244710   0.1442289  -0.0651289
  -0.3887977  -0.3472998   0.3373926  -0.0175883  -0.1835050   0.0891952
   0.3737981   0.2696855   0.2229303   0.5406061   1.4782494   0.0280056
  -0.0479777  -0.1371912  -0.1924572  -0.8811922   0.1624934   0.6584408
   1.1864573   0.1923970  -0.8317236   0.0210882   0.1664594  -0.0249951
   0.4210331   0.2763825  -1.0227694  -0.1172883  -0.0661588  -0.1786595
  -0.2217941  -0.0529736   0.0428004  -0.0711087   0.5751505   0.2362771
   0.0139584   1.0232573   0.0251226  -0.1580620   0.0834031   0.2131804
  -0.1588652   0.1625819   0.2038135  -0.1371038   0.6077620  -0.0442846
  -0.0962278   0.1888867  -0.2964789   0.5220226   0.1135577  -0.2722434
  -0.6163670   0.2511018  -0.2916662   0.1449926   0.2092204  -0.0519876
   0.4672609   0.0742407   0.1444259   0.1148024  -0.1368144  -0.2126468
   0.0062691   0.0181781   0.1640551  -0.3466625   0.6550665   1.4227872
   0.5328372  -0.8474175  -0.5409504   0.3040113   0.2749079  -0.1623020
   0.2661749   0.1041661  -0.3481208   0.4394439   0.2573590   0.5760499
   0.0904445  -0.1692513   0.0571535   0.8066660  -0.6858092  -0.6963553
   0.7499459  -0.1193522   0.5513405   0.4287828  -0.0271013   0.3636321
   0.0433495   0.4854927   0.3158368   0.7615220  -0.5615166   0.4328393
  -0.0914635  -0.0901544  -0.2226645  -1.0840117  -0.9178257   0.8876427
   0.0755976  -0.2997237   0.1918603   0.3834482   0.0497653   0.3575335
   0.3680018   0.0667759   0.3223215   0.2791232  -0.7108343   0.2930985
  -0.2094521  -0.0133287   0.1880733   1.3613389   1.2081096  -0.1093929
   0.1255200  -1.6606997  -0.0601409  -0.1601011   0.2075831  -0.0347306
   0.2431578  -0.4386681   0.0447512  -0.8595221   0.0354514   0.2562447
  -0.2866899   0.0129436   0.1203804  -0.3866720  -0.3721690   0.0916138
   0.1177761   0.3921277  -0.2331617  -0.1790169  -0.0710062   0.5384288
  -1.2470609  -0.5441230  -0.1120451  -0.9074196   0.7332240  -0.1206707
   0.0635437   0.0267151   0.0691491   0.2265450  -0.1479765   0.4301971
  -0.1250664   0.0241874  -0.1033839  -0.0315178  -0.0399766  -0.2550184
   0.0471183   1.0672407  -1.0253016  -0.4837799  -0.0137014  -0.2220075
   0.0152457   0.0766324  -0.2313446  -0.0725089   0.0852962  -0.7800352
   0.0116930  -0.7963401  -0.9984802   0.1849119  -0.1118633  -0.2010391
  -0.5641787   0.5808874   0.4834306   1.1758804   0.6633038  -0.2425376
   0.3036835  -0.1056821  -0.0760945  -0.4850359   0.1664709   0.0801160
   0.2041670  -0.2868650  -0.1623849  -0.0060163  -0.1115590   0.0716803
  -0.0456786   0.1753728   0.1117690  -0.0630037  -0.5439202  -0.3887601
   0.1820012  -0.1704504   0.0756482  -0.2834515   0.1334033  -0.0603797
   0.3853999   0.1178160   0.0358386  -0.1594048  -0.2794558  -0.0461228
   0.5066882   0.2469758  -0.1552638   0.2990182   0.1427509  -0.1075308
   0.2918310  -0.1065021  -0.0868352   0.3541665   0.4192957   0.8610877
  -0.2115194   0.1681177  -0.7906142  -0.1722384  -0.0870288   0.0679881
  -0.8630063   0.3220885  -0.4863606   0.3554800   0.1648198   0.5741500
  -0.0496281   0.1772562  -0.0696987  -0.0800917  -0.1036219  -0.8136965
   0.0822615  -0.3409558   0.2943957  -0.0242288  -0.1671504  -0.1561261
  -0.2472669   0.4085919  -0.0985235   0.3401568  -0.4479952  -0.1322254
   0.0701167  -0.1038130  -0.0884725  -1.2169219   0.5798498   0.3073436
   0.9398648   0.7992974  -0.3848290   0.2071554  -0.0169384   0.0939907
  -0.0902825   0.7181458   0.1612252   1.1669025   0.2157696   0.2406306
   0.0980845   0.0145511  -0.0204970   0.5529660   1.5489615   0.9390112
  -0.6550808   0.2134895   0.1109482   0.0281116  -0.0162242  -0.0922051
   0.1217078  -0.0369112  -0.2852871  -1.3162217  -0.7471193   1.5258952
   0.2525807   0.3270216   0.2711288   0.1841949   0.1077001   0.6374585
   0.1660981   0.1367551   0.6009418  -0.0010575   0.3665617  -0.2572321
  -0.0263209   0.1283903  -0.0358585   0.0670862   0.7684084  -0.0287747
  -0.0307453   0.2805539   0.1078090   0.1481840   1.1879439  -0.6696642
   1.0989264   0.0132696   0.4910598  -0.0448331  -0.0446257   0.0009859
   0.3230620   0.5311830  -0.2961449   0.1480005  -0.5457213   0.0672601
  -0.2256994   0.0373819  -0.2797311   0.2944147   0.0662049  -0.4979492
   1.8818558   0.0200473   0.0545188   0.3822983   0.0204742  -0.1115122
   0.3341710   1.7217384  -0.1345514   0.2866999  -0.7310136  -0.9184626
   0.2825752   0.2462480   0.0374832   0.5699640   0.3850997  -0.2631635
  -0.4068925   0.4358601  -0.8235113   0.0941516   0.2001218  -0.1257474
  -0.0194005  -0.0988323  -0.4943456  -0.0139568  -0.0598223  -0.3862427
  -0.1422402   0.0154057   0.2750726  -0.0117992   0.6339521   0.6207914
  -0.1393720  -0.1248908   0.2593470   0.3188800   0.0479809   0.2254013
  -0.4777197   0.3497763  -0.0266824   0.1608443  -0.6232803   0.4766599
  -0.0667332  -0.1846554  -0.2234642   0.1292563   0.1574033  -1.7926137
  -0.1433563  -0.5863470   1.0457130   0.0340877  -0.0320471   0.1334464
  -0.2647180  -0.0064192  -0.0971637   0.5877008   0.1070384   0.4325769
   0.2591648   0.0020225   0.0606558  -0.6597477  -0.1411474   0.0603228
   0.5028191   0.4733077  -0.2947610   0.1196805   0.0372313  -0.1255664
   0.1132822  -0.1933328  -0.8860420   0.1763664   0.2844950  -0.0282551
   0.1628919  -0.1845489  -0.3530416   0.8567893   0.9354269  -0.4341130
  -0.0830075   0.8987500  -0.2170155   0.2989346  -0.0177785   0.1251694
  -1.2327384  -0.8030290  -0.2608845   0.0871283  -0.1283847  -0.1627382
   0.1833895  -0.1052317  -0.0111850   0.1438198   0.0776519  -0.7945104
   0.9391805   0.2098470  -0.1635691  -0.1027118   0.1023138   0.3527215
   1.0551147  -1.4199118   1.3028763  -1.0405070  -0.1914184   0.9283943
  -0.0917938   0.0449164  -0.0130710  -0.1261384   0.0911772   0.1051621
  -0.1363022  -0.3572475   0.0399299   0.0831137   0.0157348   0.1502575
  -0.7945210   0.0580324  -0.4202866  -0.6309826   0.9134277   0.2348586
   0.1125960   0.0667353  -0.0917183  -0.7858468  -0.8934506  -0.0530684
   0.5917771   0.6642787  -0.2700047  -0.0746418   0.0811630   0.1293510
   0.3523896   0.2673030   0.3032093   0.0080760  -0.4204478   0.1490911
  -0.0690191  -0.2105635   0.1393804  -0.3856541   0.2794873   0.5248516
   0.6363087  -0.0696340  -0.4109149   0.4496849   0.4259398  -0.1426480
  -0.3236009  -0.5916220   0.2001391  -0.3376151  -0.4887792   0.1268412
  -0.1712533  -0.2814368  -0.0549296   0.3444009  -1.4836300  -0.1190154
   0.9699466  -0.1669549   0.4754692   0.0107688  -0.0303292  -0.1207063
   0.8228569  -0.2750364   0.1333232  -0.7931636  -0.2361006  -0.7390214
  -0.1294985   0.2255998  -0.2920050  -0.2157982   0.2464481  -0.2771397
   0.2140657   0.1312893  -0.2149313   0.0990553  -0.3068562   0.0638283
  -0.5808618   0.3603850  -0.2238670   0.2446074  -0.8491235  -0.3173786
  -0.2812238  -0.2723395  -0.2162611  -0.4801305   0.3728953   0.1663629
  -0.2698678  -0.2308909  -0.1538161  -0.0162535  -0.2424319  -0.1370782
   0.7412878   0.9810574  -0.3743302  -0.4303548  -0.9824038  -0.1792382
   0.4734197   0.2394366   0.0944135   0.2039556  -0.0563785   0.7314538
   0.6161852  -0.0571046  -1.1426263  -0.4644236  -0.0420602   0.0827020
   0.6694331  -0.2264020  -0.3232706   0.7217706   0.0119600  -0.5056200
  -0.3911839   0.0461334  -0.2317902   0.0910699  -0.6616971   0.3584772
  -1.1534538  -0.1031509  -0.0410331  -0.2000852   0.0688649   0.0982087
   0.1255572   0.9034077   0.8517025  -0.0571221  -0.1511939   0.8007971
   0.1395221  -0.1164307  -0.1617252   0.7855473  -0.2963637   0.3224486
  -0.3688914   0.4151741   0.0242764  -0.1357371   0.0600277  -0.2017202
  -0.0819347  -0.0732552   0.6453538  -0.1749666   0.0448032  -0.0015639
  -0.2863421   0.1007192   0.1055649   0.1245067  -0.5182215   0.4013466
  -0.0842641  -0.1999673   0.2237869  -0.3273743   0.0164950   0.2267402
   1.5695021   0.1367108  -0.1542610   0.2829283   0.1676282   0.5510227
   0.2089769   0.3173785   0.1190082  -0.5855043   0.0412991   0.0422089
  -0.5245569   0.0802349   0.4009756  -0.3138166  -0.1298591   0.2936749
  -0.4999246   0.3774654  -1.7382983   1.2687601  -1.4225149  -0.2182464
  -0.1446025   0.2809694   0.0436748  -1.9552940   0.8433871  -1.1937235
   0.7115578   0.4042225   0.5791725   0.3349064  -0.1708173  -0.0804504
   0.1968693  -0.1882294  -0.8598973   0.1624188  -0.1848514  -1.1643973
  -0.0787713  -0.0634762  -0.0092773  -0.7838825   0.4923114  -0.2221167
   0.1688119  -0.1469125   0.5712943   0.0648362  -0.2418417   0.1637149
  -0.0114840   0.1169036  -0.3810330  -0.0333095   0.2516556  -0.7297362
  -0.5366272   0.1057732  -0.2755372  -0.3615740   0.2055716  -0.9970850
  -1.0643957  -0.2101339   0.1702492  -0.2949081  -0.0229629  -0.2723682
  -1.1003132   0.1654885  -1.2279194  -0.5530707   0.0684528  -0.7208739
  -0.0927448   0.1530984  -0.1974110   0.2686114   0.5541271  -0.2754525
  -0.3563644   0.6999483  -0.4870834   0.0200258  -0.1777138   0.2301922
  -0.2217712   0.3898294   0.2454811   0.7727405  -0.1343725   0.1152836
  -0.1002939   0.0584488  -0.3259716  -0.3519504  -0.4220520  -0.1726852
   0.2214499  -0.3364590  -0.9829093   0.2803206   0.0157298  -0.0047234
  -0.9588235   0.2623602   0.3244054  -0.7507743  -0.1221912   0.2870910
   0.1995897   0.0713798   0.1220872   0.1364186   1.0214432  -0.2219459
   0.9120202  -0.1848037  -0.4284772  -0.1199590  -0.2794769   0.1935147
  -0.7069388  -0.2307134  -0.5040466   0.5939872  -0.7760793   0.0665459
   0.1269682  -0.0016357   0.0277413   0.0551639  -0.1267716   0.1393473
   0.3401787   1.1587353  -1.0086612   0.1214216   0.1670963   0.0956629
   0.7106931   0.4112999  -0.0976459   0.3697970  -0.3706920  -0.2155392
  -0.0466280   0.2106081   0.0029403   0.0554386  -0.0475652   0.3169795
  -0.4167044   0.1582598   0.0552620   0.0171852  -0.0539339  -0.1622241
   1.0868993  -0.0531186   0.9570222  -0.0413535  -0.3125709   0.3626399
   0.1624821   0.3011571  -0.1599164   0.2596039   0.4692182  -0.8195541
   0.5948093   1.1078220   0.8932343   0.1499609   0.3120717   0.2850283
   0.4436289   0.1327184   0.1366982   0.5574720   0.0403870   0.1321864
   0.2027399  -0.1282624  -0.0286177  -0.0828801  -0.3103661   0.1572947
   0.1349539  -0.1796375  -0.3570325   0.1651512  -0.0358489   0.2868656
   0.6642176   0.5497762   0.2570101   0.0792241   0.3721935  -1.0937350
   0.1193196  -0.0715461  -0.0651431   0.2003663  -0.3539998   0.8323930
  -0.8374419   0.0113508  -0.1920209   0.0578142  -0.6208724   0.0844941
   1.2774271   0.1599216   0.0009447  -0.0237916  -0.6642124   0.1675807
   0.2084231  -0.2049388   0.2618395  -0.1184091   0.7856343   0.2222827
  -0.0685692   1.2570807  -0.1632718  -0.3354142   0.2781217  -0.0735264
   0.2602297   0.8709796  -0.8970113  -0.9791579  -0.0379095  -1.4250522
   0.2026605   0.0734445   0.0606753  -0.3266097   0.3377758  -0.1021730
  -1.2870999   1.0672932  -0.2394274   0.0336890  -0.2327390   0.0367863
  -1.1424713  -0.3452061  -0.5076854   0.0859910  -0.0796206   0.3955586
   0.2428606   0.1155580   0.1075229   1.3107059  -0.6382117   0.0399452
   0.2919366   0.4204970  -0.1952071  -0.1477274   0.0394329   0.0273522
  -0.0939159   0.2062609  -0.1515989  -0.2063782   0.1596385  -0.1291947
   0.1777110  -0.1660862   0.0980128  -0.2543402  -0.2042016  -0.1285020
  -0.7249235  -0.5856849  -0.0193106  -0.2057537   0.2924835  -0.2398932
   0.1804979  -0.4512210  -0.8477615  -0.0239024  -0.0179171  -0.5018177
   0.1879493   0.3251119  -0.2311662   0.1823524   0.3788458   0.1729502
  -0.8458812   1.4149250   0.4308301  -0.0550946   0.0969384   0.4067779
  -0.6858723   0.2871755   1.2249965   0.6984756  -0.6797960  -0.6847872
  -0.2336035  -0.1995346   0.0806033  -0.0677889   0.1557261  -0.1758341
  -0.2838777  -0.3375373  -0.0368925  -0.1840704  -0.2113167   0.2811877
   0.7888765   0.6172074  -0.1248239   0.0608798  -1.0512080   0.1964945
   0.0905254   0.0477192  -0.0582018   0.5963756   0.0664431  -0.0560635
  -0.0083197  -0.0566858   0.0705530  -0.0519753   0.2044600   0.0487024
   1.5367534  -0.7385395  -0.2001374  -0.9072258  -0.3524704  -0.8232686
  -0.0720313   0.0811154   0.1221162  -0.2189781  -0.9045984   0.3984148
  -0.5173999   0.5698289  -0.2299812  -0.2867135  -0.2206930   0.2308412
  -0.1243715  -1.2092298   0.3068970   0.0521383   0.6350798   0.4943317
   0.3615719  -0.1989464   0.3715539   0.8273752   0.3671885   0.9542452
   0.7105513  -0.2687421  -0.6573078  -0.1920693   0.1327419   0.1928067
  -0.2943829  -0.1137938  -0.9660602  -0.1598944  -0.0100472   0.0672358
   0.0767725   0.0381388  -0.1678383  -0.0580671   0.6573444  -0.1409171
  -1.0119087   0.0958486  -0.0489772  -0.1585260   0.0656118   0.3132974
   0.3825008   0.3553879  -0.5643113   0.2762927  -0.8210697   0.7308876
   0.1900793  -0.0345577   0.0192598   0.4043829  -0.1604346   0.1370537
  -1.1779421   0.0678984   0.4990525   0.0901818   0.0300418   0.0763495
  -0.1515634   0.2504479  -0.6761418   0.0768516   0.4086750   0.5250466
  -0.1334191  -0.0667096   0.2743128  -0.2300537   0.1445097  -0.1608073
  -0.0101570   0.1064192   0.5720869   0.2627148   0.1286784   0.2356030
   0.3388017  -0.2750530   0.4654945   0.1121637   0.7890533   0.0625435
   0.0349572  -0.0947443  -0.0638085  -0.2608413   0.2749493   0.0165762
  -0.4596987  -0.7227558  -0.0938572   0.0561300  -0.0254309   0.1303495
  -0.3307611  -0.2092887   0.8993281   0.1217532  -0.8147584  -0.2845949
  -0.0951063  -0.1954888  -0.1786348  -0.5800143  -0.2683351   0.2546559
  -0.2391643  -0.2225166  -0.1748719   0.0884592  -0.1039622   0.1145995
   0.2917658   0.5441543  -0.7352540  -0.5730503  -0.2686739   0.0331423
  -0.0490242  -0.1448545   0.1673460  -0.0716654  -0.5060410   0.5109269
  -0.4064343  -0.2120407   0.4124946  -0.3986868   0.0806616   0.0864459
  -0.7526485  -0.0702179  -0.5939844  -0.0529725   0.7838034  -1.3630634
  -0.0509950  -0.0761442  -0.1757232   0.0143255   0.1690424   0.4899181
  -0.3736838  -0.0808082  -0.1915477  -0.0163534   0.1276721   0.0185112
   1.0557804   0.5475979   0.0737883   0.0695653  -0.8853489   0.6634060
   0.1755133   0.2419316  -0.1641667   0.3730567  -0.2013591   0.3973896
  -0.5305444  -0.4092718  -0.3492718   0.1371500   0.0464821  -0.2935934
  -1.7803941   0.0823429   0.8504902   0.3065000   0.2848105  -0.4512584
   0.0572516   0.1631854  -0.1724281   0.3514648  -0.3854751  -0.3954863
  -0.2385561   0.8082383   0.0956283   0.2110194   0.0543617  -0.0158508
   0.3800128  -1.0574498   0.1317100  -0.6159308  -0.5577270  -0.3619689
   0.2949636  -0.4367768   0.1373247  -0.2838050  -0.3462333   0.5337611
  -0.3847146  -0.0138941   0.0935997  -0.3166616  -0.3673269  -0.0028250
  -0.7095929   1.1713523  -0.1405881  -0.3275205   0.8317370  -0.3320416
  -0.3020198  -0.0521966   0.1296182   0.1552900   0.2342864   0.0882757
   0.0689930   0.2087822   0.1634348   0.2190061   0.0892351  -0.2207126
  -1.1570876  -0.6044107   0.1988557   0.1008103  -0.8759272  -1.9501501
  -0.0515173   0.2643624  -0.0568806  -1.0752004   0.9514049   0.1309221
   0.8582284  -0.2479894   0.0389519  -0.0563103   0.0646731   0.1198244
  -0.0104395  -0.0414786  -0.2798460  -0.7313352  -0.6230279  -0.0437909
   0.3448944   0.0276635   0.0758663  -0.9548647   0.7979032   0.4482780
   1.0104622  -0.6844758   0.3158240   0.2177744   0.4422419  -0.0837183
   1.4508294   0.2358297  -0.2897814  -0.2954919   0.2324619  -0.2398590
  -0.1358485  -0.0916977  -0.3590971  -0.3777939   0.8515416  -0.5242537
   0.2187270  -0.0393468   0.2624886   0.2410301  -0.0317803   0.1254467
   0.3382788   0.5378240  -0.5075174   0.8931800   0.2829967   0.3350261
  -0.0151308  -0.0018022   0.2819473  -1.0027608  -0.1279455   0.1809913
   0.8534052   0.0225679   0.1025264  -0.1727306  -0.3166308  -0.1692199
   0.8361298  -0.4503937  -0.8588230  -0.5880531   0.0557403  -0.4749703
  -0.1119165  -0.0189965  -0.4899370   1.6033768   0.1578867   0.4520134
   0.5630110   0.2026364  -1.3345101   0.1545085   0.2519321   0.2564495
   0.3803952   0.2291172   0.6087542   0.3878790   0.5970182  -0.6438563
   0.0155594   0.1456094   0.4502065   0.6609673  -0.1052063   0.2589600
   0.0043444   1.2145650   0.5338366   0.2205686   0.1459462   0.0924873
  -0.2105232  -0.0677487   2.0983834  -0.5834473  -0.2588790   0.3899560
   0.1118019   0.2109094  -0.2842291  -0.1199035   0.2166055   0.2492781
   0.4259911   0.4753692  -0.3205950   0.1340478   0.1900818  -0.1887307
   0.1770818   0.2414543   0.0012600   0.0581570   0.0396348  -0.2883533
  -0.0098788   0.0400722  -0.0795729   0.0614194  -0.5160408   0.1753032
   0.1207143  -0.3407059   0.1764432   0.0398570   0.0768737  -0.0603645
  -0.5680230  -0.1556137  -1.0668682   0.6816111  -0.1515736   0.3159106
  -0.4093186   0.2271804  -0.0614154  -0.3548616  -0.0603724   0.0554128
   0.1569588   0.7989300   0.9527146   0.1123669   0.3199725  -0.0428566
   0.3956739  -0.2185729  -0.5175466  -0.0605971  -0.0660300   0.6122580
  -0.0036439   0.2082355   0.2223024  -0.0470953   0.1166788  -0.4885214
  -0.2423615  -0.4112359  -0.3857545  -0.0113848   0.1021538  -0.0820361
   1.2118262   0.0677029   0.3741791   0.9116891   0.1126058   0.1075621
   0.0511799   0.2242479   0.1694477   1.2207034  -0.6011829   0.6269476
  -0.8253121   1.4001427  -0.0781017  -0.0816123  -0.2067460  -0.0671676
  -0.4983582   0.2701889   0.1204351  -0.4591174  -0.5515654  -0.4375315
  -0.1293245  -0.2946407   0.0114568  -0.3881150  -1.3312545  -0.6094745
  -0.1882866   0.0852075  -0.3822356  -0.0740801   0.3499800   0.0249610
   0.5924891  -1.1619195   0.0190092   0.4425603  -0.1589572   0.8992789
   0.0148658  -0.2206159  -0.1380861   1.0961723  -0.3077223   0.8730584
  -0.1755968  -0.2018839  -0.3203066  -0.0965139   0.1458307   0.0683407
  -0.1144059  -0.0803549   0.7197739   0.2676773  -0.2530554  -0.6082570
   0.0086182  -0.0905465  -0.1961132  -0.2017169   0.1744768   0.0015556
  -0.6140518   1.1204828  -0.5088419  -0.1263779   0.1252605   0.1634650
   0.3241099   0.5421018  -0.6210757  -0.9749672  -0.0055302   1.3765586
   0.0190075   0.0070877   0.2273067   0.0546362  -0.6591403  -0.0481830
  -0.7046916   0.4430758  -0.0971368   0.2934836   0.2540275   0.0820831
   0.0555402   0.6078939   1.4284077   0.9260096  -1.0272944   0.0712374
   0.1219664   0.1382656  -0.1599042   0.8472835   0.8183577   0.7343876
   0.0818555  -1.0181929  -1.3095561  -0.1391291   0.2267395  -0.0517184
   0.8124175   0.3227042  -0.7499744  -0.7153688   0.5446011  -0.5023108
   0.1922288   0.0968663   0.1450313   0.2925425   0.4990047   0.7906934
  -0.2333153  -0.5103235  -0.4797327   0.3112834  -0.1272871  -0.0771075
  -0.3822641   0.6048806  -0.5780502  -0.9965044   0.7034490  -1.4713217
  -0.1493947   0.2167482   0.1506663  -0.3688199  -0.4239384   0.5398382
  -0.2821458  -0.2502077   0.4364879  -0.0301668   0.0458638  -0.0773728
   0.2373371  -0.4348921  -0.7195331  -1.0047744  -0.0295722   1.4898152
   0.0671639   0.2027251   0.0637446  -0.1265348   0.0894447  -0.2662230
  -0.1257995   0.4588410   0.1067894  -0.0965578   0.2051977   0.0472207
   0.0729818   0.2083268   0.1603780   0.0697430  -0.0524365  -0.0549704
   0.1455897   0.0061887   0.0983650  -0.0213347   0.1906670  -0.1950061
  -0.1724984   0.3084061  -0.3171476   0.1269796   0.1350500  -0.0494222
   1.1515910  -0.5724934  -0.3302218  -0.0633889   0.2536195  -0.0904698
   0.0725975  -0.2688753   0.1397021  -0.1038250  -0.8088843  -0.1462690
  -0.0431974  -1.6373050  -0.7479242   0.0395171   0.2806139  -0.0400237
  -0.2814032  -0.6301356  -0.3106594   0.4656954   1.1044436  -0.0652453
  -0.0289475  -0.1271288   0.1795277   0.0735069   0.1090214   0.2454067
  -0.1668187  -0.0743528  -0.0370365   0.1588746   0.2891522  -0.2005364
  -0.2984386   0.5262547  -1.1947088   0.2979905  -0.0902926   0.4331965
   0.0559233   0.0865351  -0.0947292   0.0770721  -0.2443444   0.1272545
  -0.0217668   0.4182448  -0.2289761   0.2273665  -0.3898882   0.3463658
   0.6900433  -0.0753622   0.4196659  -0.1212789   0.8587535   0.8760279
  -0.1408120  -0.1763912  -0.0455597  -0.0935685  -0.5706439   0.0008180
   0.1877581   0.1638172  -0.3049321  -0.0942743  -0.0834138  -0.1203780
   1.7068675   0.3560718  -1.1082692  -0.4339941  -0.2512329   0.3337000
   0.2183553  -0.1831962  -0.2451991  -0.0602648   0.5041571   0.4457352
   0.2124898  -0.9446312  -1.0656485  -0.0215510   0.0092724   0.2171930
   0.4288014  -0.7467426  -0.6477616  -1.2092083   0.3393694  -0.0458453
   0.0302447   0.2105242   0.1549361   0.1614676  -0.5535099  -0.0481132
  -0.6155242  -0.1136512  -0.3479790  -0.0923443   0.0475651   0.0275635
  -0.1608899   0.4465070  -0.0159924   0.4244383  -1.5679578  -0.2471520
  -0.1463247  -0.2872254   0.0881088  -0.1699978   0.8438095   0.1591610
  -0.2353240  -0.4355601  -0.2080327  -0.1764332   0.0470084   0.0215964
  -0.2214614   0.8431222  -0.0339521  -0.2793433  -0.4929990   0.3129990
  -0.2968867   0.2196689   0.0774172   0.4501846  -0.6404147   0.1274153
  -1.4636509   1.5693069   0.0106211  -0.0438390   0.2003698  -0.0484487
  -0.3574771  -0.1047265  -0.1732986  -0.4089032   0.9109229  -0.7014662
  -0.1757328   0.0928902   0.0100953  -1.6093243  -0.5166069  -0.1460683
  -0.6889099   0.5169514   0.8870457   0.4358790   0.0488923   0.1365908
   1.0250455  -0.5541446   0.3421686   0.3694008  -0.1289690  -0.5800509
  -0.2748867   0.1451239  -0.0875162   0.2464414   0.1977999  -0.9782063
   0.2503900  -0.7093236   0.1026698   0.2253802  -0.2360321   0.2446867
  -0.4165506  -1.0663474  -0.7193082   0.2247668   1.5461746  -0.8570560
  -0.1844269  -0.3124657   0.3299884  -0.1182547   0.2634170   1.3071085
   0.2302606   0.3016599  -0.9055559  -0.0363426   0.0942094   0.3395888
   0.2471008   0.6196826   0.0941950   0.8893697   1.6557115  -0.6075279
  -0.0523512  -0.3191353  -0.1383905   0.3045901  -0.3948399  -0.0779086
  -0.1963371  -0.2488093   0.1295381  -0.1703529   0.1511706  -0.0984739
  -0.2681993   0.1183746  -0.8032428  -0.7202962   0.5441656  -0.1327605
  -0.1024242   0.1470829   0.2412224  -0.1850802   0.2442498   0.9873436
  -0.1644759   0.0302635  -0.6141141   0.0044506  -0.1497406   0.2143883
  -0.3538981  -0.4875927   1.3226076  -0.8411801  -0.5806302  -0.1529889
  -0.1663405   0.0583101   0.2160684  -0.2081212   0.7618040   0.8954517
  -0.1270153   0.6558993  -0.2964628   0.0107857  -0.2475670   0.4231112
  -0.0728348  -0.1531359   0.4055026  -0.4592085   0.4713370  -0.0148141
  -0.1348677   0.1574745   0.1273032   0.0513423   0.4179510   0.9414172
  -0.3156910  -0.0649060  -0.6089479  -0.2337407   0.1571488  -0.0297173
  -0.3095592   0.4808861   0.0795230   0.2464791  -0.1565623  -1.1919247
   0.0687145  -0.2638746   0.0960010  -0.3728014  -0.1168330   0.5294227
   0.5663681   0.2404645  -0.9967404  -0.3475206   0.0920889  -0.0821016
  -0.2203646  -0.0375160  -0.2467036   0.0977987   0.0960603  -0.8799648
  -0.1542238  -0.2209574   0.0538414   0.3040995   0.5650537   0.4656326
   0.0419834   0.0737148   0.2626256   0.2345198  -0.0709360   0.3404052
  -0.0693209  -0.2170924  -0.4293675   0.1026522  -0.3571633   0.9484724
  -0.1531105  -0.0014644   0.3241215   0.3366809   0.6039285   0.7898706
   0.0260471  -0.7985026  -1.4935320  -0.0591136  -0.0812089  -0.1319535
   0.3753281  -0.3944208   0.1842833   0.5443754  -0.2602614  -0.5055209
  -0.0836327   0.0150710  -0.4768472  -1.0457426   0.2514607   0.2877290
   0.3419249   1.0660908  -0.9258375   0.0106358   0.1224227  -0.1353446
   0.0162251  -0.1033015  -0.6468403   0.0340376   0.5812844   0.1140477
  -0.4616809  -0.1312893  -0.0935432  -0.5033571  -0.4806493  -0.3136036
  -0.1682366   1.0070274   0.1509759  -0.2596973   0.0665377   0.1365692
  -0.2933106   0.1399360   0.3939728  -0.2476127  -0.1940215  -0.0464361
  -0.1750005  -0.0084514  -0.1244368  -0.0361408  -0.2081234  -0.3709662
   0.6592951   0.8211825  -0.6836959   0.3761589   0.1568574  -0.1898942
  -0.0269663   0.0937356  -1.2613199   0.3213466   1.6491914  -0.7209438
   0.0232569   0.3952069   0.0367002   0.5152721   0.8918475   0.5255934
   0.1436385  -0.4995783   0.3998198  -0.1091479  -0.0503265   0.4549898
   0.0467435  -0.2465889   0.9976439  -0.2261319  -0.2484833  -0.0418426
  -0.0471090  -0.0089566  -0.2747977   0.3283420  -0.5155304   0.1499927
   0.0829500   1.0572830  -1.4139506  -0.2580431  -0.2000319  -0.0871101
   0.5948984  -0.7146247  -0.6229091  -1.1688375  -0.4195176  -0.7226355
  -0.3099098   0.1401408   0.0442286   0.3841463   1.1323022   0.4190148
   0.3638551   0.4558166   0.5238397  -0.2827233  -0.4169086   0.1615598
  -0.7138171  -1.2077950  -0.4286962   0.6248635  -1.0303494   0.0198614
  -0.0412226  -0.2858685  -0.1559010   0.0490241  -0.0695573  -1.3002478
  -0.1110863   0.3582116   0.3477973   0.3239369  -0.0258711  -0.0604188
   0.7992919  -0.1782512  -0.1558271   0.5170061   1.0668054  -0.0734231
   0.0896456  -0.1155774   0.1774133  -0.2691202   0.2003890  -0.0556695
   0.3823780  -0.2515810  -0.0701890   0.2052339   0.1982889  -0.2263217
  -0.7904026   0.1798334  -0.6406198   1.0196689   0.3625570   0.1475749
   0.2779495   0.2539073   0.0009815   0.4334701  -0.8359892   0.6028904
   0.3871315  -0.3725005   0.3407862  -0.2016243  -0.2808748   0.1493812
  -0.5910609  -0.1502214   0.5841171  -1.1656069  -0.0511984   1.0957854
   0.1328700  -0.1304326  -0.6781664   0.0517600  -0.9791184  -0.6078127
   0.5680678  -0.6496772   0.1529921  -0.2167616   0.4929406   0.1065558
   0.1854200   1.4844919  -0.2663561  -0.2004162   0.5277953   0.0692941
  -0.2494102  -0.0648694  -0.0663784  -0.2152668  -0.2829920  -1.0345358
  -0.6979714  -0.9525983  -1.9037789   0.1124283  -0.1761438   0.2257542
   0.2466483  -0.5333835  -0.6484372  -0.5297589  -0.5200016   0.7578543
  -0.2716762  -0.2055603  -0.0733259   0.7710605   0.1474789  -1.0751884
  -0.3908947  -0.2196026   0.2767969  -0.0574959  -0.0118258   0.0715115
  -0.4682953  -0.5422856   0.1819008  -0.3689081   0.4983145   0.4564478
   0.0328635  -0.2075071   0.2181993   0.2821115  -0.2270972  -0.4716342
   0.0470762  -0.5946333  -0.2401247  -0.1749291  -0.3266902   0.0767655
   0.2982130  -0.5783815  -0.1972790   0.4663212  -0.5633564  -0.0510398
   0.2039026   0.0342201   0.0698766   0.6295531   0.0123622   0.4219294
   1.0835366   0.3077290   0.6790151  -0.1519808   0.0791173  -0.0946839
  -0.2512580   0.3511594  -0.0945416   0.1526395   0.2290876   0.0768690
  -0.2545108  -0.1094745  -0.0172034  -0.4659913  -0.0783689  -0.0096194
   0.8338773  -0.2835442   0.3174401  -0.3329588  -0.2345426  -0.1387829
  -0.1040639   0.7320896   0.0485657  -0.1817310  -0.1852435   0.5427509
  -0.2902795  -0.0396959  -0.0589435  -0.9308789  -0.7537371  -0.2885161
  -0.3806869   0.4254563  -0.1608441   0.0420594   0.1206122  -0.1257136
  -0.1621555  -1.2630417  -0.3286546   0.6576207   0.5528280  -1.1958174
  -0.1238088   0.1627824   0.0335303  -0.0194352  -0.0960307   0.0795140
  -0.3510834   0.7956101   0.1741954  -0.1463548   0.0661325  -0.2204384
   0.6312091   0.3530208   1.3217497  -0.2772402   0.2133628  -1.0708899
  -0.1379298   0.2671613   0.0529436  -0.4941171   0.4589143  -0.3579182
  -0.4493350   0.4445755   0.4251549   0.2263306  -0.1570914   0.1139045
   0.0054205  -0.1962972   0.2998450   0.1615179  -0.1669066   0.6410412
   0.2691501   0.2912506   0.2329332  -0.0726435   0.5086857   0.0891385
   0.0441670   0.0193626  -0.2073469  -0.0621925   0.0706027  -0.0968573
   0.0557614  -0.8913017   0.0483137  -0.1037146  -0.2202769   0.0390925
   0.2669555  -0.1066018   0.1977407  -0.3832118  -0.4929147  -0.0266232
   0.2861289  -0.0609983   0.0776986   0.0318857   0.1777129   0.0891101
   0.5390512   0.6491348  -0.2672534   0.4826637  -0.5371955   0.3230843
   0.1727965  -0.0186969   0.2361941  -0.7734833  -0.4139622  -0.3467047
   1.1787360  -0.6846908   0.0441571  -0.0574705  -0.2736367   0.1164445
  -0.0759753   0.7315754   0.9433275   0.0528671  -0.4034000   0.4571474
   0.1673258   0.0099653   0.0105612   0.4062440   0.2162873  -0.0798346
   0.1077583   0.4445531   0.2481419   0.0810971   0.0839559   0.3391912
  -0.1111282   0.1254265   0.1933615  -0.3247260   0.3182565   1.0373781
   0.3005155   0.1183817   0.1909995   0.2487555   0.0657595   0.3157674
   0.0749165   0.1352420   0.1539014   0.0484171  -0.0272323  -0.5377490
   0.4419008  -0.3926796  -0.7549080   0.1002291   0.8355588  -0.6805873
  -0.1358656   0.1180615  -0.1232517  -1.0383632  -0.3859039   0.8018942
   0.2733789   0.1121287   0.2480641   0.3397403   0.1079706  -0.1870168
   0.3276066  -0.0973191   0.0742964   0.1635708   0.2002488   0.0552774
  -0.0895016   0.0757933   0.3021594  -0.1576125   0.6125693  -0.6125039
   0.0165038   0.4515518  -0.1203145   0.1451059  -0.3425298  -0.1968176
  -0.7148454  -0.7041319   0.4444128   0.5468759   0.5394246  -0.5569264
  -0.1087468   0.0720280  -0.3999599  -1.1064886   1.3761115  -0.4097570
  -1.3099475   0.0087380   0.7961334   0.0755636   0.0185348   0.2101191
  -0.5070299  -0.0228919  -0.3534635  -0.6561964   0.6593536   0.1653826
   0.2341897   0.2430850   0.1363975  -0.1692419  -1.6206961  -0.5097419
   1.6263300   0.1750298   0.9770739  -0.2145880  -0.0905208  -0.2109701
  -1.0920677  -0.5410159   0.1750740   1.1626465   0.6096083  -0.6666071
  -0.0103290  -0.0502849   0.0039577  -0.2843980  -1.4314282   0.0767830
  -0.8767838   0.8419170   0.4256466  -0.1107638  -0.1094471  -0.2513415
   0.4896126   0.2477181   0.3953921   0.0707307   0.1162309  -0.6349737
   0.2061746   0.3047960   0.4933104  -0.0072267   0.4962375   0.2085496
   0.2003542   0.2732955   0.1789963  -0.3360191   0.1166814   0.1348448
   0.2673034   0.5094657  -0.1881535  -0.0979470   0.6603959   0.4715116
  -0.0438754  -0.1460943  -0.0456950  -1.1810877  -0.0553144   0.7805558
   0.3576900   0.7485978  -0.3230229  -0.1001632  -0.0297684   0.0031304
  -0.1771022   0.0479406  -0.8761406   0.0813537   0.1300209   0.7262836
  -0.1427287  -0.0842697  -0.0901492   0.0397160  -0.0138970  -0.5079951
  -0.4988634  -0.3392702   0.7634252  -0.0711333   0.0542779  -0.0985243
  -0.0879540  -0.8312118   0.5564539  -0.2666018  -0.9627447   0.7788343
  -0.3470265   0.1094842   0.1438313   0.4150083   0.3529622  -0.1960999
   0.6528649   0.6598502  -0.3787389   0.1592133   0.0440057  -0.3985213
   0.1419265  -0.9472689   0.7214115  -0.1980867   0.0929303  -0.6780431
   0.0534078  -0.0337448   0.0801457   0.4123985   0.5329572  -1.5077614
   0.1223081   0.1742103  -0.3238684   0.0167573  -0.2198580   0.1452666
  -0.0464426  -0.2993597   0.6121478  -0.1692982   0.6897445   1.3556986
   0.3066936   0.1198134  -0.2153608  -0.5384337   0.6253618  -0.0683201
  -1.2752510  -0.0583184   0.4266667  -0.0137324  -0.1263784  -0.0773348
  -0.3177533   1.4133513   1.3872858  -0.2087842   0.1272071   0.2771683
   0.2597899   0.0631122   0.0227162  -0.1937637   0.1429773   0.3368052
   0.2300455   0.5030677  -1.5873052  -0.1013041   0.1959532  -0.1952384
   1.0263775   0.0778242   0.1246409   0.4865579   0.1309595  -0.0582106
  -0.0458344   0.0049887   0.0130760  -1.3026788  -0.2639021   0.4943588
   0.6983553   0.5586441   0.2440828   0.0099196   0.0753559   0.1160552
  -0.1121861   0.6577153  -0.2798818   0.3215630  -0.2876182   0.5957827
  -0.4076827  -0.2878027   0.0017226  -0.0373054  -0.9850739  -0.1864171
  -0.6532237   0.1839205   0.0686552   0.0265644   0.0710471   0.1795055
  -0.0495635   0.7500324   1.2301925   0.0618632   0.1263620   0.0045608
   0.1801767  -0.0697863  -0.1676702   0.8466515  -0.1884137   0.3948195
   0.0781898  -0.0710017  -0.3297816   0.0049943   0.1175329  -0.0267424
  -0.8792079   0.0146452   0.0806790   0.2256674   0.5178636   0.3255121
  -0.3024103   0.1393775   0.1661881  -0.2671474  -0.4884533  -0.3255079
   0.5951783   0.7770678   1.1021493  -0.1858440  -0.0340257   0.1268862
  -0.1214148  -0.3636664  -0.3668899  -0.6279584  -0.1549024   0.1730120
  -0.0383119   0.1348680   0.1336076  -0.4482083  -0.4007498   0.9746477
   0.0557051  -0.3484935   0.7341774   0.2144643  -0.1508843  -0.1316659
  -0.0215266  -0.2063506  -0.6695759  -0.3911597   2.1393402   0.3082945
   0.2537868   0.3298116   0.0284157  -0.1933552  -0.5331651   2.1064604
   0.2643040   0.1855434  -0.0721052  -0.0544159  -0.3492674   0.3562445
  -0.5669880  -0.1918292   0.8423802  -0.2867559  -0.7491244  -0.0573369
  -0.1007721  -0.3922374  -0.3185751  -0.8147312   0.0642713   0.7970880
  -0.4953839  -0.4303636   0.1731739  -0.3175443   0.0044355  -0.0254551
   0.1618998  -0.5394011  -0.2262740  -0.9483463  -0.1724558  -0.3034883
  -0.1674615   0.3824415  -0.1367129   0.2247582   0.4843073   0.9645579
   0.4871194   0.4690001  -1.7026416  -0.0459022  -0.0023509  -0.1039872
  -0.5339616  -1.2586040   0.0084111  -0.5442538  -0.1805468  -0.4759936
   0.0110836  -0.1559312   0.0210583   0.3137924  -0.3048834   0.2318714
   1.0207211   0.3844249   0.2159647  -0.0843378   0.2124368   0.0193255
  -0.1053870   0.1531749  -0.0814517  -0.7974070   0.1096256   0.2223472
  -0.4466411   0.1916322   0.0811894  -0.3402593   0.1943278   0.2227955
   0.1787282  -0.2462437  -0.8512739  -0.1925254  -0.0409493  -0.2432185
  -0.3961476  -0.2439616  -0.2905858  -0.1655121  -0.0157542   0.0306963
  -0.0433797  -0.0853960   0.1611879  -0.7093858  -0.1681061   0.5697484
  -0.0611889   0.5255694  -0.4153483   0.2127401   0.0729532   0.1003281
  -1.0293438   1.1517665   0.4483314   0.1541184  -0.0707167   0.5261795
  -0.2541188  -0.2460088   0.1148831   0.2851755   0.0787727   0.3249205
  -0.4199938  -1.4447778  -1.0591182   0.4654978  -0.0067584  -0.2342105
   0.5121263   0.7471718  -0.7877945   0.6953376  -0.3961334   0.1634146
   0.2367944   0.0522812   0.2485323   0.0624015  -0.3410635  -0.3295887
   0.5803866   0.3094441   0.6387393  -0.0480984  -0.1829870   0.1863154
  -0.0831520  -0.4167028  -0.1158675   0.0283976  -0.3408437  -0.0206838
   0.2202505   0.1774736  -0.1433650   1.0704865   0.0897803   0.0798163
  -0.4512553   0.0437548  -0.1442601  -0.0432263   0.0309184  -0.2743190
   0.2819884   0.3704099   0.7123950   0.4267577   0.1464786  -0.2731701
   0.1611114  -0.2231637  -0.0114217   0.8819136  -0.1892615  -0.1077747
  -0.0041696   0.0203617   0.0617603   0.1961985   0.3388798  -0.1877195
   0.0845810  -0.3743841   0.3754247   0.8774131  -0.1520977  -0.6347068
   0.0435852   0.1449357   0.2039748  -0.4125401  -0.0176184   0.4586634
  -0.1630345  -0.1003326   0.1309739   0.0788450   0.0005591  -0.1103080
   0.3055152  -0.2886403  -0.6370950   0.0262723  -0.4894471   0.3404416
   0.3785815  -0.0718958  -0.0876459  -0.0767304  -0.1799039   0.1343901
   0.5929869  -0.2944416   0.1782475  -0.4127006   0.3953225  -0.1033719
  -0.9423726   0.5915314  -0.6345829  -0.6169702   1.0028847   0.4227680
  -0.0047444   0.0323019  -0.0221683   0.8877530   0.4603161  -0.5974674
  -0.1297730  -0.2065858  -0.7950775   0.2499862  -0.2039891   0.2111200
  -0.0853877   0.7212872   0.2419882  -1.0231574   0.2317560  -0.6062077
   0.0241759   0.0215754   0.0079334   0.2751864  -0.3375126   0.6875232
   0.1948031  -0.7359867  -0.2875014   0.0415986   0.1439138  -0.1510003
  -0.2779426  -0.4918226  -0.3147458  -0.9179441  -0.0223976   0.1106295
  -0.1718129   0.2330919   0.1588755   0.6418721  -0.0390552   0.6773693
  -0.2709588  -0.9716145   0.9610444  -0.0077125   0.0306213  -0.0513407
  -0.2419688  -0.6292180   0.4616957   0.0376244   0.1231069  -0.0662527
   0.2625116   0.0638930   0.2689715  -0.4765198  -1.1045955  -0.4636883
   0.3166459   0.0500248   0.3783601  -0.1408684   0.0219070   0.1667920
  -0.1431372  -0.4240715  -0.0998872  -0.1019684   0.4337530  -0.1444308
  -0.0970677  -0.1007921  -0.4333953   0.1593802  -0.4235344  -0.3766716
  -0.6445653  -0.1276974  -0.3486747  -0.4029998   0.1991780  -0.0017004
  -1.3357429   0.8616104  -0.3609049   0.1607696  -0.0314108   0.8544473
  -0.2188151   0.2289121   0.3974706  -0.6289776  -0.4921327   0.9516897
  -0.0092426   0.0367356   0.2005588   0.0538997  -0.0985359   0.4502700
  -0.0669180  -0.4907093  -0.6732215  -0.0164590   0.5430126  -0.0974442
  -0.0240112   0.1331828   0.2048687  -0.4596682  -0.0650836  -0.1289143
   0.1024077   0.7765718  -0.2529324  -0.0560726  -0.3074128   0.0006285
  -0.2312490  -0.5910342   0.3789220   0.2571819  -0.5941813  -0.1285656
  -0.1081353  -0.1598675  -0.0075061   0.1468102   1.5233037  -0.3157875
   1.2002482  -0.6983472   0.7168460  -0.0877095  -0.0829061   0.1105817
  -0.1559232   0.0759153  -0.3602455   0.0546061  -0.0905800  -0.8428147
  -0.2835166  -0.3286679   0.0661716  -0.2143697  -0.3422229  -1.3031753
   0.2140646  -0.1249765  -0.2968067   0.0040659   0.2401755   0.0060683
   0.3518228  -1.2593112   1.2364372  -1.3309380  -1.0091642   0.4397534
   0.0424400   0.2848920  -0.0520858  -0.1376245   0.1300962   0.0254925
  -0.0067447   0.2704140   0.0583283   0.1172333   0.0141783  -0.0263369
   0.9364849  -0.1259360   0.3290834  -0.1467958   0.2040598  -0.6032354
  -0.3393098  -0.0926062  -0.0606888  -0.2380703  -0.5663504  -0.6128260
  -0.0859633   0.5390440  -0.3670075   0.2861899   0.1830913  -0.2057042
   0.4460293  -0.9231550  -0.4272644   0.7264492  -1.6407833  -0.4479173
  -0.1520896   0.1569856  -0.0381056   0.3319503   0.0949880  -0.4496388
   0.4480407  -0.6001325   0.5630991   0.0366338  -0.1770056   0.1964544
  -0.1446950  -0.3559838   0.0329846   0.1070592   0.0492099   0.2019073
   0.0320151  -0.1208317  -0.2877708   0.2333714  -0.0803745  -0.6363851
  -0.3038980  -0.9469369   0.1979932   0.4053783   0.1235317  -0.1780887
   0.2798836   0.6303307  -0.1367121  -0.7998105  -0.8011163  -0.0648967
   0.2270006  -0.0317039   0.2676209  -0.1656165  -0.0094378   0.5000055
   0.0649542  -0.3105987   0.9800274  -0.1118791   0.0490333   0.2523669
   0.5086095   0.2403448  -0.0372010   0.5668889   0.2432915   1.0575542
   0.3110116   0.1568366  -0.0884669   0.0247742  -0.6371326  -0.9825576
   0.4006303   0.4389211   0.2971404  -0.0420874  -0.0378437  -0.0345818
   0.4793569  -0.6495801  -0.5692237   1.7025211  -0.6514416   1.3325974
   0.1735936  -0.1755600  -0.0562414   0.2518967  -0.4099917   0.0973890
   0.2499992  -0.1176386  -0.1668333  -0.4394888   0.0820810  -0.0673074
   0.3829680   0.6754341   0.3473150  -0.6840156   0.2078432   0.6148692
  -0.2688731  -0.3104675  -0.1364495  -0.5669061  -1.8743259  -1.6265110
  -0.3626293  -1.3154839   0.2597176  -0.0198074  -0.0244189   0.1562325
  -0.8009043  -0.2335733   0.1944704   0.3519583  -0.4503337  -0.9977221
  -0.0836047   0.0280321   0.0463463  -0.3714748   1.3902191   0.4938237
  -0.2828645  -0.0468531  -0.9275847  -0.2132591   0.2229479  -0.0596200
  -0.0305162   1.1742363   0.1450982  -0.2511517   0.5618504   0.2258763
   0.0307005   0.0364566  -0.0873456   0.1372633  -0.3282735   0.3599469
  -0.2141083  -0.4072579   0.2302893   0.0698917  -0.0295958  -0.1655729
  -0.0093774   0.6754904  -0.4042516  -0.0746600   0.4592353  -0.1633708
  -0.2747257   0.2073408  -0.0048296  -0.7061019   1.8062752  -0.9499920
   0.0530806  -0.5227491   0.0812541  -0.0245296  -0.2469760  -0.2427274
   0.1938213  -0.4588701  -0.7740772   0.2525142  -0.2002172  -0.6384147
   0.0839210  -0.0077118   0.1751150  -0.8068218   0.5088829  -0.1467232
   1.0890925   0.7668368  -0.1218470   0.0758838   0.2265627  -0.0605342
   0.0859222   1.3088710  -0.5021402  -0.1979901   0.2236895   1.1751698
  -0.2958794   0.4778614   0.1182170   0.0111994  -0.2803466  -0.3047065
  -0.2657829   0.5648369   0.3989302   0.5393173   0.1536945   0.0698467
   0.3303834  -0.3246704   0.3643965   0.0333469   0.3687720   0.2957829
   0.0105351   0.0185889  -0.1244048   0.3356616   0.2903416  -0.7534380
  -1.1470807   0.4638870   1.4353635  -0.1913616  -0.1634311  -0.1577605
  -0.5484858   0.4027159   0.0660471  -0.6756728  -0.6910033  -0.2360135
  -0.0464278  -0.0608382  -0.1539742   0.1573822  -0.6283223   0.1160546
  -1.2056692  -0.1843363  -0.1832949  -0.1662393   0.0218200   0.0710734
  -0.2371491  -0.0409443  -0.2925685  -0.1692641  -0.2155281   0.0560966
   0.0807010  -0.1403788  -0.0572118   0.1824230  -0.2104078  -0.3755200
  -0.2824807   0.3068572   0.8386575  -0.0696375   0.2001811   0.1704503
  -0.1728218  -0.8933663  -0.2002598  -0.9687336   0.5316465   0.4494707
  -0.0120706   0.1178285  -0.2862100   0.1608412  -0.5049934  -0.7658992
  -0.0435939  -0.2919638  -0.7259071  -0.1383182  -0.1848306   0.1875615
   0.6116762  -0.9960709   0.2733382   0.0882228  -0.6802675   0.2410094
  -0.1257129  -0.1663245  -0.2840769   0.1066743  -0.1939435  -0.1248931
   0.0160780  -0.1942607  -0.0540472   0.0298251  -0.0727684  -0.2321046
  -0.0622878  -1.0818657   0.5151101   0.2412582   0.7398261   0.2156256
  -0.0181904  -0.1375167  -0.0043138  -0.3180982  -0.3172961  -0.5094165
   0.0365801  -0.6717796  -0.0400045   0.3033983   0.2417370  -0.0702617
   0.7192906  -0.2989119   0.4574632   0.4734311   0.0325519  -0.6898841
  -0.0498395   0.0953650  -0.1024740  -0.4360087   0.3888737   0.6368714
  -0.2437194  -0.7781857  -0.1899889  -0.2423139  -0.0134893  -0.4498221
  -0.7269705   0.5944786  -0.5906705  -0.1730760   0.5005080   0.1396467
   0.0865980   0.1317653   0.1737474   0.6726558  -0.1643650   0.2242075
   0.0305512   0.0983349   0.5310612   0.1074619  -0.1443511   0.1605688
   1.1750569   0.0838259   1.0124403  -1.0701786   0.0350782   1.0147511
   0.0488973  -0.1201517   0.0710607   0.0076987  -0.4435491  -0.0817125
  -0.0611796  -0.1857210  -0.2480772   0.2610252   0.3043347   0.2525698
   0.2587290  -0.2029017   0.1236330   0.4294639   0.5341875  -0.0957110
  -0.2700425   0.0549769  -0.1051555  -0.7188659  -0.0864272  -0.4537416
   0.2300928  -0.0675205  -0.1524393   0.2851219  -0.0063264   0.0044417
  -0.6297780   0.7746218   1.2943285   0.9397335  -0.5217301  -0.6851968
  -0.1457086  -0.0991191   0.1422300  -1.0078609  -0.6839470   0.5765094
  -0.0739575  -0.2974198  -0.9191438  -0.1426363   0.0346686   0.0573293
  -0.2779417   0.8445746   0.2008899  -0.0787278   0.6217168  -0.0683091
  -0.1132223   0.0665218  -0.0289020  -0.7787816   0.4711784  -1.1789860
   0.2030497  -0.1227048   0.4667013   0.0518703  -0.0115546  -0.1293427
  -0.9033722  -0.7922587  -0.5218995   0.4220615   0.2460974   0.0393113
   0.1375924  -0.0060393   0.1505373  -0.0539512  -0.3364800   0.4991244
   0.9194199   0.6663477  -0.8859296   0.2060322  -0.1812945   0.2604280
  -0.6943721  -0.6071665   0.3110619  -0.9599609  -0.3877921   0.5841512
   0.0397149  -0.0258056  -0.0114842  -0.1739485  -0.8972139   0.9004479
  -0.7410613  -0.1883672  -1.2392935   0.1870288  -0.0800621   0.2051898
   0.2298274   0.4885783   0.6355973   0.7337981  -0.8647522  -0.2290783
   0.1406464  -0.0170623   0.2382751  -0.1815397   0.1606189  -0.0743902
   1.1662388   0.2505308  -0.1203758   0.0922723  -0.0010737   0.1233057
   0.1641248  -0.0453263  -0.1714246   1.3126475  -0.0579529  -0.2560388
   0.0324391   0.1250309   0.1649498  -0.2673092   0.1993137  -0.6198732
   0.4049717   0.1714779   0.2589267  -0.2241286  -0.2459795  -0.0617154
  -0.0877800   0.0006937  -0.4896589   0.8307541  -0.7553771  -0.3194641
   0.1351843  -0.0695352  -0.2001605   0.0051999   0.1917756  -0.2221307
   0.3927064  -0.0378068  -0.8383216   0.0332701   0.1705928  -0.0543285
  -0.0638824   0.4404508  -0.7174802  -0.2600078   0.8067216   0.3832555
   0.1855968   0.2470631   0.1055137   0.7423089  -0.8787826   0.6103388
  -0.4595983   0.4232097   0.8024331   0.1191226   0.0374936   0.0234072
   0.3043557   0.4953593   0.3830097   0.4679536  -0.4940584   0.7415068
   0.0901318  -0.2291705  -0.0825797  -0.1539203   0.2243169  -0.0386422
   0.6881489  -0.8478802   0.2705070   0.0510404  -0.1039240  -0.3605058
   0.0778172  -0.0664246  -0.3298215  -0.3361163  -0.4484469   0.5335571
  -0.2034827   0.2190497   0.1954323  -0.6624212  -0.0685313   0.6581198
  -0.1988926  -0.2820508  -0.0444606  -0.0320360   0.1520590  -0.1134557
  -0.3614916   0.1995110  -0.0925391   0.0315694  -0.1606862  -0.0594583
  -0.1763330  -0.2794671  -0.1273125  -0.2802265  -1.3239211  -0.4599979
   0.5804536   0.9101848   0.3650155   0.0013065  -0.1269160   0.3254924
   0.0370524  -0.4946448  -0.5367725  -0.0098683  -0.0085586   0.6032493
   0.1841397  -0.3316926  -0.1199938  -0.0193272  -0.1288342   0.3208997
  -1.9482148   0.7657340  -0.6746325   0.2376020  -0.3570309  -0.0303717
   0.6140803  -0.1873349  -0.1924053   0.1802124   0.2769269  -0.1653509
  -0.0501896  -0.1096174  -0.1957357   0.6556433   1.4147196  -0.0856310
  -0.2278622  -0.4439313   0.8333903  -0.0770834   0.0818874  -0.4872840
   0.2093730  -0.3965391  -0.1410284  -0.5047321   1.1640478  -1.1335207
   0.0357145   0.2001732  -0.0376655  -0.6547715   1.0241544   0.5906395
  -0.8555515   0.4627532  -1.1508135   0.1788298  -0.2325275   0.2735727
   0.0136371  -0.2326032   0.6551144  -0.0868238  -0.2445370   0.1517927
  -0.0890093   0.0348944  -0.2191014  -1.0926325   0.3821545  -1.0476771
   0.5634748   0.7831671  -0.2467846   0.1561538  -0.1387708  -0.0614425
  -0.1141249  -0.5775335  -1.1961795   0.5798337   0.0987015   0.8985387
   0.0341289   0.2178953   0.3830689   0.8681188   0.3166732  -0.1195318
  -0.3150391  -0.0437016   0.3910956  -0.1108445  -0.0855940   0.0346899
  -0.0219551  -0.2803084  -0.3486521   0.2880518  -0.2053712  -0.2565037
   0.1508081   0.2356968   0.3314429   0.0060916   0.6079375  -0.0994231
  -0.8123989   0.2961630   0.8031358  -0.0575289  -0.2828172   0.1282818
   0.0415919   0.2825037   0.1918508   0.1688120   0.3804203   0.0199454
  -0.1438799   0.2972325   0.2615488   0.5490663  -0.0228120   0.9253663
  -0.7425829   1.5057458  -0.4604342  -0.0411856  -0.0640740  -0.1358558
  -0.8231197  -0.0514719  -0.3472696   0.2476392   0.4881200  -0.3990223
   0.1326407  -0.0007787  -0.1046012  -0.0105786  -0.4514493  -0.0740719
   0.1659969   0.2913208   0.1397230  -0.3751365   0.2165616  -0.1212530
  -0.3563227   0.3780592  -0.3265417  -0.2420725   0.1128130  -0.0531394
   0.1429620   0.2568534   0.1581980   0.9259179   0.2920273   1.2815127
  -1.0212889   1.0298040   0.3237626   0.4224183   0.1919422   0.2501693
   0.6127120   1.2138444   0.8381750  -0.2953581  -0.4901898   0.6139429
  -0.0491921  -0.0734032  -0.1304053  -0.1769732   0.3636840  -0.3129157
  -0.3338259  -0.3196814  -0.4374404  -0.1030516  -0.0863717  -0.2380052
  -0.6554445   0.1235686  -0.7382279  -0.7020961  -0.1011028   0.4679740
   0.1053344  -0.0926207   0.1267751   1.3850137   0.2708257   0.5999072
  -0.4419454   0.3867997   0.3627341  -0.2410390  -0.1258723   0.3753437
   0.3340656   0.2454608  -0.6624518  -1.2769522  -0.4813469   0.5045476
  -0.0379657  -0.0452727   0.1253330  -0.5705344  -0.2808535   0.3103992
  -0.1317838  -0.6222612  -0.0017584   0.2599881   0.0593221  -0.0171031
   1.2139880   0.3002318  -0.5898817  -0.6208130   0.2141737  -0.0749242
   0.0702013   0.2027525  -0.0346491   0.0695831   0.4640558  -1.2868700
  -0.0875768   0.4746949   0.2428375  -0.2417745  -0.5043972   0.0820748
  -0.1532613   0.8755247   0.2780458  -0.1646020   0.0042380   0.1133648
  -0.0035274   0.0947095  -0.2331801   0.5838307  -0.2847401   0.4623419
  -0.7148258  -0.4901526   0.2591433   0.4113166  -0.0692052   0.1307766
   0.1822347  -0.1988547   0.9092901   0.4812797  -0.0169361  -0.0866559
  -0.1627842  -0.1069457   0.2279299  -0.4584724   0.1397050   0.1051339
   0.6209357  -0.2650706   0.8303043   0.0730653  -0.1684016  -0.2277382
   0.4686437   0.3974275  -0.5998740  -0.3844711   0.2026247   0.2316250
   0.1878119   0.0740263  -0.2705849   0.5276688   0.5151555   1.2432084
   0.1867817   0.6977844  -1.1772188   0.1018061  -0.3999174  -0.0355901
   0.8087889  -0.5108351   0.0341272  -1.0798299   0.2902371   0.1934972
   0.2254391  -0.1884566   0.1924940   0.0316974  -0.9305255   1.3480232
   0.4514797   0.5464271  -0.9233839   0.2427537   0.2109195  -0.0191745
   0.1309044  -0.1026943  -0.0560140   0.4900191  -0.6053350  -0.5555406
  -0.1263050  -0.2104239  -0.0221544  -0.3044953   0.0068359   0.5594998
  -0.5188275  -0.6569063  -0.0413387   0.0104957   0.1295109   0.0282888
  -0.5248026  -0.6995324   0.6244794   0.8957871   0.4483698  -1.2977235
   0.3878498   0.2051567   0.1084387   0.3065429  -0.0241759  -0.8055903
   0.2581827   0.5087560   0.4174426  -0.1214917  -0.1673395  -0.2245761
   0.7796297   0.6101583   0.2664194  -0.5259506  -0.3236472  -0.0296714
  -0.2529301   0.0384781   0.0103006  -0.6021324  -0.3550074  -0.1620418
   0.1064119   0.3202587  -0.8837300   0.0756573  -0.3894362   0.0480819
  -0.6381218  -0.4565467  -0.3461947   0.2536333  -0.6059822  -0.0920505
   0.0734581  -0.0805733   0.0226990   0.9580936   0.8309266   0.6703050
  -0.6423183  -0.5796047  -0.1876609   0.2679615  -0.0723501  -0.1982740
  -0.8828026  -0.4898832  -0.5835815  -0.2220516   0.0211459   0.1409212
   0.1432908   0.1450522   0.3848595   2.1775599   0.4803240  -0.2926384
  -0.8193266   0.2020801  -0.1895242  -0.2686194   0.1936436  -0.0023107
  -0.1986891   0.0742172  -0.3084958  -0.3551533   0.0968675  -0.0034798
  -0.2219666  -0.1944992  -0.0871097  -1.2786050   0.7199933  -0.3597258
   0.5721951   1.0486217  -0.0743978  -0.2118323   0.0419376   0.0136854
  -0.4560787   0.1563894   1.9074139   0.1116837  -0.1718516  -0.4254434
  -0.0654702  -0.0259510   0.2371743   0.7598917   0.1214226   0.3759586
   0.2717508   0.6303021  -0.0024740  -0.0231948  -0.2234968  -0.0808499
   0.0482275   0.0925657  -0.0973906  -0.0535688  -0.3995090  -0.0798534
   0.2405600   0.1633502   0.0292743   0.3536331   0.5334524   0.5313273
   0.2420431   0.1655449  -0.8596266   0.1683512   0.3414289  -0.0129936
   0.0971931   0.1256745  -0.7183896  -0.2619183   0.4817523   0.1343700
  -0.1840192  -0.0849319  -0.0151003  -0.2810591  -1.1024793  -1.1604360
  -0.4291541  -0.2056141   0.0132655  -0.1513112  -0.2596393   0.0969278
  -0.2395853   0.3316031   0.1463904   0.0364497  -0.3969467  -0.1961697
   0.1215613   0.3299108   0.0770196   0.4781724  -1.6648685  -0.7818631
  -0.0374548   0.0225438   0.0063348  -0.0828163   0.0835621   0.1262230
  -0.0855990   0.3899281  -0.0178196  -0.4785031  -0.7964425  -0.9834088
  -0.3176972  -0.2690696  -0.0257159   0.6572956  -0.6923902  -0.5296235
  -0.8660358   0.2837283   0.1100887   0.0921744   0.0839442  -0.0367266
  -0.0349046  -0.1850885   0.6424096   0.7048088   0.3857956  -0.3687338
  -0.1832598   0.1966891  -0.1040492  -0.3224440   0.0627367   0.0495847
  -0.5158589   0.5739945   0.8314119  -0.1436728  -0.1394721  -0.2692062
   0.8145279  -1.1854282  -0.6843961   0.1311721   0.3460501   1.0340200
  -0.1701191   0.0321348  -0.1169073  -0.0513315  -0.8148562   0.2121782
  -0.1341841  -0.5266561   0.0713248   0.2431153   0.0871137   0.0461405
   1.1301304  -0.9047738   0.3306008  -0.4655425  -0.2238925  -1.0346122
  -0.1278006  -0.1194267  -0.0558990   0.1873576  -0.1586600   0.8053917
  -0.8625286  -0.2731569  -0.3289173  -0.1436027   0.0586931  -0.2263335
   1.1052584   0.0412992   0.9476397  -0.8943065  -0.6349107  -0.0936613
  -0.2373740  -0.0607909   0.0724410   1.0824935  -0.8492426   0.7676108
  -0.2542538   1.6645733  -0.3667055   0.1556861   0.2388054   0.1187768
   0.4661458  -0.5987595   0.2729915   0.2834686  -0.3256994  -0.3598840
  -0.2935682   0.0944420  -0.1743373   0.2583828  -0.2632849   0.4575327
  -0.1841219  -0.1309588   0.2499865  -0.2704450   0.1253040  -0.1396366
  -0.7016061  -0.9826270  -0.3984448  -0.1944948   0.2539873   0.9201271
   0.1417360  -0.0621748  -0.3491960   0.3116778  -0.7811188   0.7449751
   1.2353823   0.6516494  -0.3772865  -0.4283509  -0.1226187   0.0207039
   0.3405346   0.6436803   0.3425505  -1.0495583   0.7909272   0.6083713
   0.2838262   0.1258177  -0.2119279   1.3439883  -1.1558694  -1.5798056
   0.2160772  -0.0449744   1.1674638   0.1859219  -0.0557720  -0.2116017
   0.0948822  -1.1342315   0.0461125  -0.3768738   0.7476722  -0.0945093
   0.3836581   0.1182416   0.4418160   0.3732273   0.5102161  -0.4067232
   0.4563974   0.1999431  -1.4969784   0.2973496   0.1039308   0.0399418
  -1.2547922  -1.2395428   0.2969166  -0.9885699   0.1321989   0.6482685
  -0.0070551   0.0021340   0.1541183   0.3710831   0.2376949   0.8820398
  -0.0491290   0.6902051  -0.3226892   0.1696139   0.3076082  -0.1700581
  -0.1617831   0.5141858   0.6063568   0.2410775  -0.5927903  -0.4170688
   0.0454901  -0.4219269  -0.0059552  -0.2898195  -0.5455373  -0.3198671
  -0.1845455  -0.9394540   0.5455140  -0.1998410  -0.1822719   0.2224581
   0.4536870  -0.0870820  -0.5380300  -0.9821272   0.3147210   0.5857084
  -0.2808542  -0.0472627   0.3191903   0.0424299  -0.7361565  -0.6459549
   0.6044730   0.1137235   0.0565235   0.1985514  -0.0624388  -0.0055833
   0.4363962  -0.3531338  -0.2763586   0.7111031   0.2193703  -0.1654871
   0.4308140   0.0540072  -0.0363370   0.4211629   0.0326557  -0.3975994
   0.4080227  -0.1415971   0.2915766   0.3118276   0.2315263   0.4230498
  -1.3674162  -0.2179785   0.1509033   1.2807820  -1.4909137   0.4331949
  -0.1009527  -0.0116676   0.1582563  -0.0823625   0.0667422   0.1616648
  -0.4462548  -1.0542637   0.1591652  -0.1511773   0.3582684   0.1042044
  -0.5631671   0.0699740   0.1817750  -0.0649797   0.5785813   0.2303596
  -0.0571757  -0.4939149  -0.0863740  -0.4150288   0.1642520  -0.1429223
   0.8322848  -0.1037619  -0.0026716  -0.0432117  -0.2411661   0.2736128
  -0.2883925  -0.3697460   0.1327683   0.2529121   0.6459134   1.5871283
   0.0006644   0.1120384   0.1465856   0.7261196   1.1340597  -0.2971584
   0.8661440  -0.5025857   0.0930243  -0.1441928  -0.2844029   0.0194915
  -0.3858087  -0.2212246  -0.0152004   0.1480506  -0.3623463   0.0659051
   0.3311600   0.0604525  -0.0967912   0.1697058   0.6132944  -0.5165272
   0.2787780   0.5824330   0.0806344   0.2574245  -0.0999795   0.0751592
   0.1340723  -0.4162338   0.2693144   0.0824272  -0.3527787   0.3433849
   0.0889849  -0.0136447  -0.0032373   0.0062258  -0.0069394  -0.0192037
  -0.8721672  -0.1866018   0.0548932   0.1081103   0.3283994   0.1644034
   0.0967830   0.3553610  -0.1536315   0.3098108   0.4988951   0.2042506
  -0.0193809   0.0505473  -0.1165712  -0.1786549  -0.7073153   0.9693311
   0.3445040  -1.4150666   0.4687996  -0.1075230  -0.2790399   0.1620452
  -0.8914339   0.2299700   0.2867752   0.3800286   0.3203662  -0.1569187
  -0.0497301  -0.0746405  -0.1048665  -0.2000306   0.9298856   0.7660664
  -0.2076727   0.3075327  -1.2942627   0.2536433   0.0309601   0.2350030
   0.6583435  -0.1959067   0.8234609   0.7498643   0.4484698  -0.1707206
  -0.1265656   0.3301796   0.2947773  -0.4066149   1.1946887  -0.1101265
  -0.3772317  -0.1440462   1.5241843   0.2240446   0.1469745  -0.1206891
   0.6430704   0.0889473  -0.4000262   0.7965966  -0.0853880  -0.6374922
  -0.0691529   0.0158384  -0.0976492  -0.0090576   0.3838127  -0.1515490
   0.0895768  -0.2739231   0.1239494   0.1182499   0.1971756  -0.0171470
  -1.3299800  -0.5366940  -0.0313644   1.1724804  -0.2961463   0.0927623
   0.0942123   0.0553722   0.0542064   1.8601459   0.4017331  -1.0393173
  -0.4328374   0.3697199   0.4603415   0.0608707   0.0846253   0.3726891
   0.4810132  -0.3008244   0.6810348  -0.0104568   0.3886921  -0.1380404
  -0.1587362   0.0251958  -0.0350143  -0.3986304  -0.3072948  -0.4649283
  -0.4578036   0.4998193  -0.0057404   0.2035114  -0.1495373  -0.1740459
   0.4458056  -0.5067481   0.0148991  -0.1515625  -0.6399002   0.3952112
   0.1495380  -0.1423899   0.1245554   0.2769709  -0.1279993  -1.1745212
  -0.2918069  -0.3853856   0.2208525  -0.1072118   0.0579116  -0.0181574
  -0.0349082  -0.0628534   0.6614841   0.1444093   0.2726323   1.5446599
  -0.0202504  -0.1042879   0.1230378  -0.3949454   0.0839068   0.7261817
  -0.1143532  -0.1942178  -0.1588407  -0.0617377  -0.0114451   0.5251075
   0.2217161   0.1198316   0.7422481  -0.1738297   0.0978501   0.1073783
  -0.1704985   0.2391989  -0.0119281   0.1067668  -0.5666087  -0.7262296
  -0.5685660   0.2329400   0.6489488   0.0228874  -0.0039824  -0.1323580
  -0.5774895   0.4234835   0.1942465  -1.5971466  -0.8563097   0.5076365
  -0.2204491  -0.0034742   0.0554197  -0.0110883  -0.3398609  -0.2770458
  -0.4190956   0.6955877  -1.3834528   0.0483750   0.2172532   0.2127795
  -0.7126996   0.0739306  -0.2907788   0.3143321   0.1689781   0.1822927
  -0.4057047  -0.2574509  -0.2391236  -0.2588171   0.2497650  -0.3939740
  -0.3124012   0.0084532   0.3811159   0.0128354  -0.2291574   0.1352238
  -0.2994371  -0.2798022   0.0376296   0.2048037  -0.4520675   0.2530402
  -0.4233706   0.0196410   0.1618913  -0.9178005   0.0142108   0.2947305
  -0.3384071  -0.3596440  -0.1811915  -0.0001209   0.3587280   0.2270988
  -1.0674654  -0.0887484  -0.5214366   0.6466753   0.0200013  -0.1456759
  -0.1595377   0.4538196  -0.0839223  -0.1988241  -0.3340217  -0.0762974
  -0.5194214  -1.0379004   0.6416731  -0.2688089  -0.0387720   0.2123549
  -0.5993258  -0.8974908  -0.1171106   0.3197316   0.1619447   0.1631562
  -0.1675324   0.2086859   0.1772737  -0.8018556  -0.7056454  -0.1793644
   0.3280578   0.1293958   0.1141827  -0.0506771  -0.0642745  -0.0143385
  -0.3013145  -0.6108092   1.1704646  -0.0310830  -1.0636769  -0.0689750
  -0.1425805  -0.1196498  -0.0393431  -0.4823732   0.1552641  -0.0604868
   0.1058459   0.1885409   0.2370285  -0.0632807  -0.0529804   0.0957319
  -0.7460732   0.2197965  -0.5941620   0.4555020   0.0750423   0.1588280
   0.0314626   0.2490059   0.1409482  -1.1380527   0.7106905   0.7183726
   1.4063166   0.0109784  -0.6102276   0.0843286  -0.0975691   0.2830708
  -0.5381924   1.1445355   1.4149836  -0.3966733  -1.4399215  -0.6638929
  -0.0585761  -0.0548259  -0.0236056   1.2504798   0.5235551   0.1812593
  -0.3306816   0.6542509   1.3144899   0.1362752  -0.3182688   0.5163223
   0.0654173  -0.8506310   0.4597978   0.3674738  -0.6416008   0.3917963
   0.2666144   0.1384005  -0.0844984   0.7110458   0.8604287  -0.0113216
  -1.3057180  -0.6714763   0.6074320  -0.2508710  -0.1128057  -0.0313355
  -0.1856964  -0.0444541   0.0329032   1.2777759   0.3449827   1.0337564
  -0.0122991   0.1515624  -0.2753538   0.1475279   0.2379201  -0.3956231
   0.0003528   0.0498837  -0.2568824  -0.0811746   0.2526881  -0.1693393
  -0.8192593  -1.4763285  -1.0392159   0.4679258   0.4318441   0.9269880
  -0.0161495  -0.2975474   0.1177648   0.4634703   0.8349878  -0.5663696
  -0.9612529  -0.7670514  -0.1695664  -0.1820517   0.1724330  -0.2356877
   0.4106454  -0.0033244  -0.5617117  -0.0669875   0.1416056  -0.3798526
   0.0051162   0.1311710   0.2669018  -0.5375584  -0.4780906  -0.1076851
   0.5858892   0.8628103   1.0784870   0.1518554  -0.2228161  -0.2849192
   0.3376260  -0.2088426  -0.2684761  -0.1463987  -0.0314119   0.6276724
   0.1903011  -0.2162296  -0.0575588  -0.1285209   0.1939454  -0.5153615
   0.6025756  -0.7032584  -0.5606380   0.2555560  -0.2308385  -0.0746774
  -0.1265556   0.7577170   0.1421052  -0.3432006   0.0333347  -0.8560622
  -0.0635934   0.0029641  -0.1006780  -0.0009930   0.1498518   0.0684937
   0.0286434  -0.2534694  -0.3281461   0.0784518  -0.2856383  -0.3697788
  -0.4894549   0.1930036   0.5563457  -0.6313819  -0.7875488  -0.5827535
   0.0848179   0.0666485   0.0486718  -0.2899821   0.3512388   0.6178178
  -0.0848170  -0.6180806   0.0390710  -0.1667431   0.0930313  -0.3801162
  -0.6889512   0.4644724   0.5929670  -0.3450635   0.1442020  -0.2519164
  -0.2418372   0.0408874  -0.0681512  -0.0231384   0.4731158  -0.3124274
   0.0012806   1.0372237  -0.3854094   0.0185950   0.1292906   0.0546385
   0.5232325  -0.0297386   0.7479039  -0.6093336  -0.6925140  -0.0609406
  -0.0680349   0.0332096   0.0145475   0.3909286   0.1520362   0.2035012
  -0.7438252  -0.1499281  -0.5932789  -0.1011279  -0.2808919   0.0085941
   0.1714085  -0.2992171  -0.0427606  -0.2961059  -0.1575084   0.0160624
  -0.1059196  -0.2008408   0.0854764   0.6764361  -0.7736397  -1.5702232
  -0.1177865  -0.3043264   0.8643055  -0.0776679  -0.0248635   0.0413063
   0.4321910   1.0143994   1.4470744   0.0926338   0.5808437  -0.2001237
   0.1053726   0.1110287   0.1865656   0.0432533   0.0460281   0.2405172
   0.1723243   0.1244691   0.4367852   0.3526227  -0.3302184  -0.1446365
  -0.0847057   0.3740759  -1.0403073   0.1837103  -0.2174802   0.7940504
  -0.1143154  -0.0442819  -0.1372153  -0.0235003  -0.0227686   0.4291377
   0.3262534  -0.2399302  -0.5091163  -0.1345873  -0.4774092  -0.2419646
  -0.2526390  -0.9005812   0.5117746  -0.4570288   0.1397082   0.2364025
   0.4523894  -0.3724166   0.1710296   0.3913378  -0.3207036   0.6607464
   0.0498930  -0.1699187  -0.1962743  -0.0557403  -0.0255579   0.0168199
  -0.1092931   0.5232935   0.1914942  -0.0710961   1.3017359   0.5143043
  -0.2028498   0.0812989   0.0920109  -0.5243826  -0.4460181   0.7198485
  -0.3555191  -0.2909940   0.5333117  -0.2959676   0.0530473   0.0333050
  -0.0990561   0.2681562  -0.7315264   0.0543399  -0.2391137   0.2608115
   0.0471625  -0.1198187  -0.0123049  -0.1069366   0.1984625  -0.1523976
  -0.2028303  -0.3524193  -0.0611257  -0.2419437  -0.0781691   0.1203557
  -0.7889266   0.0870269  -0.6341345  -0.7012385   0.2225001   0.6124236
   0.4386617   0.3383560  -0.0959333   0.8357599   1.0730434  -0.1356518
  -0.2436076   0.5424736  -0.1183468  -0.2063840   0.2349843   0.2377925
   0.1319014  -0.2079979   0.0037156  -1.4496381   0.5876198   0.7171087
   0.2573690   0.1457617   0.1847718  -0.3813805  -0.4903764   0.0038518
   1.2988313  -0.3660732   0.5849340   0.0225987   0.0764486  -0.0204537
  -0.9414679   1.8817962   1.2504793   0.4834969  -0.9350090  -0.4420484
  -0.1231782  -0.2737404  -0.2315493  -0.1945897   0.2060981  -0.0307958
  -0.5449394  -0.6086238  -0.7641757   0.2913231  -0.1135337  -0.2321221
  -0.2449870  -0.3136372  -0.0107802   0.6853702   0.2732742  -0.7150850
  -0.2497061  -0.2492273   0.3478840  -0.4792018   0.3267877  -0.7377856
  -0.2713582  -0.2089406   0.1531817   0.0233269   0.1028636  -0.0283125
   0.1869068   0.0003530   0.2914280   0.0185535  -0.3075241   0.9418587
   0.0303866  -0.0736694   0.0330367   0.4983576  -0.0046025  -0.1685954
  -1.3410055   0.2092820  -0.2272568  -0.1959864  -0.1817757  -0.1799783
  -0.1104312  -0.1483874   0.4020387  -1.0007573  -0.1036063   0.8784229
  -0.0266763   0.1874491  -0.4424365   0.4333579   1.1190776  -0.8898256
  -0.1103922  -1.1410524   0.2279653   0.2546132   0.0607212   0.0005116
   0.4387913   0.4586032   0.1140506   0.3895921   0.2569537  -0.4382434
  -0.0848247   0.0035308  -0.3700528  -0.3226521   0.2376916  -0.5265847
   0.1478703   0.4468050  -0.2265216  -0.2772925   0.1513339   0.0450028
  -0.5618856  -0.0823316   0.5141844  -0.3797273  -0.1516986   0.3294632
   0.0172283  -0.0297380   0.2013259   0.5831795  -0.3276236   0.3711023
   0.2943979  -0.1061075   0.1308991  -0.0811814   0.1213546  -0.0171289
   0.9358861  -0.3341228  -0.1339198  -0.7684209   0.7662189   1.0278623
  -0.0047936   0.3067833   0.1959615   0.6037842  -0.2571391   1.0328604
   0.1786033  -0.3468796   0.2453935   0.0679851   0.0423715  -0.0232107
  -0.3388172  -0.1626941  -0.0714707  -0.4980420  -0.3538376  -0.1685285
  -0.1410077  -0.2148288   0.1331943  -0.6160607   0.2076733   0.0121811
  -0.3467513   0.2432612  -1.5392443  -0.1188319  -0.0493156   0.3064326
  -0.5202504  -0.2019204  -0.5191808   0.4709206  -0.8694817   0.3865988
  -0.4262604   0.1564773   0.0530017  -0.8542587   0.2392765  -0.5182664
   0.0907618   0.6472528  -0.0372658   0.0894252  -0.0377024   0.0784691
  -0.1878274   0.2185167  -0.0663123   0.3306287   0.7085919   0.5540497
   0.0452873  -0.0670631  -0.0594564  -0.4252046  -0.5636990  -0.3901686
   0.2896664   0.1868151  -0.0374635  -0.1098914  -0.0798203   0.0654604
  -0.0831339  -0.0267949   0.3135051  -0.6851851   0.3234322  -0.3904695
  -0.0815590  -0.3848836  -0.2779040  -0.0424957  -0.0404902   0.3685194
  -0.0619466  -0.3845221  -0.2332093  -0.0908624   0.4779745  -0.0115627
  -0.5823826   0.3975276  -0.5889709   0.2230664  -0.1736873   0.2529858
   0.0179003   0.0885402  -0.1480955   0.0849503   0.1075928  -0.3251639
  -0.3526177   0.0095156  -1.0389907  -0.1963674  -0.4973202   0.0367142
  -0.8727770   0.3990123  -0.2355861  -0.1956263  -0.5211611   0.4605749
   0.2270835   0.0749651  -0.3301191  -0.3747869   1.6916720   0.0680078
   0.6555518  -0.3226906  -0.6865802   0.0319096   0.0073918  -0.1823921
  -0.2203524  -0.3887106   0.2399559  -0.0491575   0.7013749  -0.0699315
  -0.3087718   0.0554388   0.0674116  -0.3924889  -0.1532067   0.1518934
   0.3956312   0.7184539  -0.6886921  -0.5134758  -0.0205048   0.1362858
  -0.5303449  -0.5777685  -0.4800546   0.4464873   0.1722631   0.1312800
  -0.0016063   0.0297562   0.1014405   0.2296353   0.7317775   0.7587058
   0.0928043  -1.0320245  -0.4091621   0.1117165  -0.2106610   0.1551171
  -0.1912860  -0.6173782  -0.9912151  -0.3395836   1.7894894   0.2064790
   0.0219126  -0.1845596   0.0367919   0.2883011   0.0362765  -0.6312159
   0.9667264   0.8879903   0.0753166   0.2772149  -0.1975941   0.0653649
   0.0155421   0.1088671  -0.1077776   0.4608029   0.7437147   0.4049155
  -0.1756259  -0.1217671  -0.0076225   0.0045270  -0.3117845   0.5693725
  -0.3199287   0.3637969   0.5848679   0.0972777  -0.0637782   0.3011854
  -0.4273847   0.2074825   0.9332823   0.3323464  -0.0383234   1.1691722
   0.2288897  -0.0204073  -0.0434170   0.0116491  -0.3952708   0.4554669
   0.4036239   0.6324365   0.2330337   0.2271152   0.1511322   0.1402611
   0.5087458   0.0244736   0.2401523   1.2112941   0.8596985  -0.1386470
   0.1374096  -0.0525058   0.1686676  -0.7844165   1.5993987  -1.3200754
  -0.2188612   0.5598490  -0.3823304  -0.0714303  -0.0191969  -0.3098302
   1.6522592  -1.3490708   0.0420995   0.0283147   0.8864122   0.1519388
   0.0510541  -0.3196307  -0.1029988   0.6425390   0.5743735  -0.4849863
  -0.2065212  -0.6930451   0.0210369   0.0547978  -0.1537594   0.0460939
   0.2996262  -0.3552285  -0.9792340  -0.1062794   0.9006362   0.0898112
   0.0700838  -0.1191150  -0.0233991   1.0075194   0.6927958  -0.7909842
   0.5287135   0.1138690  -0.5265068  -0.1456392   0.2173183  -0.0446835
  -0.3336300   0.9262748  -0.0163783  -0.4130694  -0.1286747   0.2633337
   0.0210982  -0.3358577   0.2674158  -0.0136891  -0.1006960   1.0236266
  -0.4836202  -0.8008380   0.0191266  -0.1963692  -0.3500546  -0.1108443
   0.1272551  -0.9568932   0.0630329  -0.7863826   0.5107689   0.8804927
  -0.0308621  -0.0430917   0.1611053  -0.0990038  -0.4156130   0.0784666
   0.2928625   0.0326613   0.0627164   0.2149821   0.0891810  -0.3242200
   1.5558349  -0.0504686  -0.6887183  -0.7660679  -0.3508270   0.0485433
   0.0241604  -0.2901384  -0.0976078  -0.9680838  -1.5158273  -0.1517857
   0.7357270  -0.5469565  -0.2708917  -0.2209720  -0.1138578   0.0794205
  -0.2310398   0.2778071  -0.1085020  -0.6077020  -0.5276122   0.5940022
   0.1682822  -0.1457426  -0.2016661  -0.7314724   0.7721406   0.1502216
  -0.7506790  -0.9701151  -0.0852026   0.0208624   0.3971428  -0.2461691
  -0.4530042   0.7732212   0.0685481   0.1562552  -0.6918709   0.0596786
   0.0603420  -0.0266576  -0.1538313  -0.0461559   0.9198068  -0.2723175
   0.1638935  -0.1831728   0.0802749   0.3038579   0.0090291  -0.0722693
   0.0541160   0.6972762  -0.7663216   0.4241327  -0.0571705  -0.0305776
  -0.3431324   0.0219911  -0.0697310  -0.7905799  -0.0948621  -0.9677954
  -0.9962085   0.2872194  -0.9382021  -0.0835622  -0.2609609   0.0756924
  -0.0614749   0.4245444  -0.7041271  -0.0033818  -0.0034395  -0.0592901
  -0.0446669   0.0238618   0.1246205   0.5156685   0.6951170   1.2726978
  -0.8040381   0.7377729  -0.0780693   0.4640598   0.1761213  -0.1616189
  -0.1501720   0.5677468   0.1010298  -1.9388004   1.6132467   0.6562061
   0.1265043   0.1858615  -0.1352245  -1.4231138  -0.2128512  -0.2339588
   0.1101026  -0.9136005   0.3648466   0.1914534   0.0195007  -0.1513932
  -0.4208324  -0.3156321  -0.4812195  -0.0100419  -0.5917318  -0.3109069
   0.1918931  -0.0842590   0.0790286   0.2539049  -0.1009853   0.0321376
   1.3883371   0.1001179  -0.4420952  -0.2278389  -0.0789500   0.2233142
  -0.7782650  -0.4579556  -1.1812526  -0.8723054   0.3625650  -0.2852032
   0.1998044   0.1520903  -0.1073901   0.2033569   0.2026737   0.4285079
   0.0414785  -0.0511963  -0.3076119   0.2143971   0.0605348   0.0376356
   0.7648233   0.4017225   0.6725824   0.5431495   0.7050470  -1.1363345
  -0.2221633   0.1612669   0.1457205  -0.4038643  -0.2172297   0.2768373
  -0.4074694   0.3109743  -0.2314623  -0.1023737   0.1810777   0.0181262
   0.0923378  -0.3322479   0.2143358  -0.1091007  -0.3899209   0.5994334
   0.2902076  -0.4740722   0.0625588  -0.5529395  -0.3193800  -1.1251466
  -0.0712858  -1.1610068  -0.7862155  -0.1592109   0.1818660  -0.0819132
  -0.1815497   0.3129615   0.4629889  -0.4662967   0.6425943  -0.0519918
   0.4611573   0.1120971   0.0918583   0.6506802  -0.4782984  -0.5946159
   0.9594392  -0.3503741   0.7224760   0.1243356   0.0588585   0.1015249
   0.3879243  -0.1139191   1.1906650   0.6776298  -0.4342671   0.6483504
   0.1251201  -0.1510061   0.1000621  -0.5919025   0.5006757   0.1573985
  -0.2403675   0.0762617   0.2493878   0.0533004   0.2173464   0.0698325
  -0.3999809   0.6184935  -0.1634371   0.2320461   0.0733437  -0.1238037
   0.3050122   0.0815730  -0.0163527  -0.3438172   0.2928003  -0.3147712
   1.5100848  -0.2993231   0.2108830   0.0436626  -0.1835172  -0.0657234
  -0.0934865   0.3492255  -0.1556150  -0.0722965   0.1430436   0.1566073
   0.0288399  -0.1812716  -0.1941113  -0.0520575  -0.3323606  -0.0331878
  -0.5180999  -0.3638843  -0.1499010  -0.1346792   0.1760650  -0.0871934
  -0.1854378   0.1414060   0.0848846  -0.5793048   1.2047736   0.0309506
  -0.1544665  -0.1084925   0.3643541   0.0728437   0.1098878   0.0446443
   0.7745605  -0.3336787  -0.0531783  -0.1324897  -0.4014906  -0.1568613
  -1.1797619   0.2536031   0.0099285  -0.0658889  -0.5327242  -0.0115692
  -0.0483440   0.1479765   0.2173149  -0.4792881   1.0910059   0.1077724
  -0.0489317  -0.3024034   0.3229444  -0.2123591  -0.1585864   0.2238484
   0.0077412   0.3734781   1.5154858   0.1400183  -0.0170427   0.9868472
  -0.1839717   0.3773998  -0.0579218  -0.1928816   0.7241615   0.0769354
   0.2540296  -0.0173610  -0.0012930  -0.0322315  -0.1272529   0.1524997
  -0.2409243  -0.1761243   0.2986355   0.3346745   0.1221913  -0.2267088
  -0.0392900  -0.3325016  -0.0257821  -0.1849024  -0.6239590  -0.1637498
  -0.0058795  -0.2508598   0.0160937  -0.1298949  -0.0916224  -0.0268381
  -0.0578888  -0.5937191   0.8026287   0.7389709   0.2309948  -0.2529432
   0.0243729   0.1784974  -0.1802852   0.0399290   0.0198765  -0.3044866
  -0.1400803   1.3456538  -0.0153169   0.0269380  -0.0591564  -0.4340259
   0.2643482  -0.6131226   0.8044030  -1.2175289   0.1929449   0.1745557
   0.0725914   0.0071004  -0.0698906   0.0671956  -0.9531740   0.5689062
  -0.4400037   0.6879819  -0.6329768   0.1138441  -0.0769351   0.1952075
  -0.0329159   0.3363647  -0.1597415   0.8099580  -0.7322894   1.0302396
  -0.3066530  -0.2515880  -0.1424507  -0.3093907   0.0530647   0.1454636
   0.0247918  -0.3610600  -0.5241935   0.0589273  -0.1343457   0.2078958
   0.2198904  -0.4636598   0.0629516  -0.0222969  -0.0751573   0.4129263
   0.0786217  -0.2592921   0.1924631   0.2066797   0.0241596   0.2373633
   0.1002225  -0.3845161   0.4639894   0.3438161   0.0208069  -0.0636693
  -0.3401922   0.8956012  -0.4951411   0.7041966   0.2214169   1.2135566
   0.0560199  -0.6209424   0.0024287   0.0770246  -1.2537886  -0.0242414
  -0.3710810  -0.1155842  -0.2348645   0.1799739   0.1153516  -0.2022218
   0.4601003   0.3836231   0.8565593  -0.7210140  -0.2886784  -0.1073326
   0.0173807  -0.0420254   0.1507593  -0.0855350  -0.2104826  -0.0607822
  -0.1452267   0.0275691   0.3239696  -0.0550829  -0.0501095  -0.1669835
  -1.0031466   0.1944700  -0.6481046   0.2882516   0.3434512  -0.5885904
  -0.0723417  -0.2334534   0.1023391  -0.8255775   0.1580646   0.2424419
   0.1301930  -0.3512371   0.4038207   0.0319287   0.0754094   0.1986367
  -0.2955006  -0.4385369  -0.0086438   0.5777814  -0.2116668   0.8230778
   0.2929427  -0.1269815  -0.0699516   0.3683912  -0.3361181  -0.4780967
   0.7578185   0.6543931  -0.3392111  -0.1727300  -0.0229540   0.5204913
  -0.8234050   0.1681317   0.6744108  -0.4930115   0.0213465   0.1606774
  -0.3594579   0.1457131   0.1110322   0.3115707  -0.6274561   0.9891121
  -0.0527043  -0.2287351   0.5397526   0.1320456  -0.2429119  -0.1075467
  -0.5775245   0.0365213   0.6670961  -0.1662752  -0.2561850  -0.0613458
   0.0722410   0.0006924  -0.0462929   0.0848833  -0.0409925  -0.4020691
   0.4646896  -0.5624096   0.3501553   0.0819638  -0.1678900   0.0720259
  -0.4343754   0.1264010   0.4475927  -0.2993531   0.1937107  -0.2987627
  -0.0681886  -0.1705857  -0.0603508  -0.2608260  -0.5046828  -1.3421332
  -0.6767463  -0.5756677   0.5195232  -0.1186289  -0.2226392   0.1130535
   0.4632428   0.7534115  -0.3904372  -0.6500478   0.9986975   0.2914844
   0.0173603   0.3889176   0.2434969   0.1951036   0.3534552   0.1885107
  -0.2053398   0.1988996   0.4010615   0.1201539   0.0264265   0.3233553
  -0.0087666   0.0943169   0.3193080   0.2807152   0.8652308   0.3181471
   0.0935369  -0.0259208   0.0255526   0.1548338  -0.0062990  -0.0311961
   0.1537907  -0.1526682   0.3208981   0.1152024  -0.1977441   0.2030228
  -0.3973076  -0.4874562  -0.3174251  -1.4106002  -0.9595637  -0.0488955
  -0.1560384  -0.2332001   0.2661212  -0.1461425   0.7407686  -0.4348090
  -0.5120636  -1.0904859   0.2374135  -0.0961014   0.0551916  -0.0194562
   0.0912082   0.1340002   0.4956005  -0.0030501   0.0851552   0.1706805
   0.1411005   0.2787250  -0.0154610   0.1294862  -0.0117818  -0.1314880
   0.1758121  -0.2228286  -0.3481990   0.0918358  -0.0212382  -0.0177232
   0.2036846   1.3678727   0.8578647   0.2490206   0.5241529   0.7550875
  -0.2495687   0.1003860   0.1705310  -0.3124432   0.5621103   1.6094604
  -1.0071064   0.3866059  -0.0852204  -0.0479360   0.1486708   0.0856884
   0.9863490   0.6033774   0.0718383  -0.0326295   0.5403550   0.7598786
  -0.2915900  -0.2633078   0.0802314  -1.1053775  -0.5520574  -0.2154420
  -0.1949128  -0.3548838   0.0563239   0.1827775  -0.1091352  -0.0220417
  -0.1441659   0.0477574   0.1954979  -0.0508377  -0.1298176  -0.0114593
   0.1087837  -0.0453813  -0.4098134   0.2332583  -0.5057388  -0.6563121
   0.3539519   0.1716632  -0.0822950  -0.0005969  -0.2356331  -0.0690434
  -0.4066934   0.0145594   0.1956230  -0.2927882   1.3279681   0.6208816
   0.1780384   0.0588971   0.2029198   0.6400718   1.5863515   0.8056144
   0.3494280  -0.6646494   0.3816444   0.1167979   0.0305326  -0.2828867
   0.1325453  -0.2051974  -0.7005529   0.1848688   0.3272092  -0.2248644
   0.0585267   0.1359118   0.0976584  -0.8770003   0.2413368   0.3608303
  -0.2116213  -2.0570273  -0.0540372  -0.0562981  -0.3048809  -0.1384682
   0.3729924  -0.4085982   0.6799535  -0.1096122   0.8041592   0.2256099
  -0.2658489   0.0730556  -0.1612974   0.0677419   0.7387553   0.2097260
   0.5256327  -0.1803365   0.0863017   0.0977639  -0.2351632   0.2050163
   0.0591024   0.0177024   0.0588720   0.1248365  -0.2274632   0.1591216
   0.0827207   0.1119138   0.0553006  -0.3106407   0.9935480   0.5221165
   0.5032669  -0.7953225  -0.2504635   0.0362459  -0.0258282  -0.1905599
  -0.3906156  -0.5478519   0.0714832  -0.0898414   0.9417515  -0.0017670
  -0.0093173   0.2583941   0.2289511   0.5502647  -0.7382760   0.0862431
   0.5627760   0.2474131   0.3002194  -0.0705391   0.0200112   0.1414264
  -0.6327397  -0.3447557  -0.1110943   0.3046325   0.2386527  -0.2962085
   0.1527863   0.1022632   0.1369476   0.1223703  -0.0615005   0.0947274
   0.1142359   1.0745267   0.8468091   0.2237040  -0.1574488  -0.0890783
   0.9085373  -0.7796778  -0.0445282  -0.5539485  -0.6176234  -0.2254047
  -0.1233791   0.1089796   0.1424086  -0.0239249   0.9377422   0.2543767
  -0.2052085  -1.3831761   0.0625586  -0.0206557   0.0735802  -0.0203900
   0.0274916   0.2116217   0.4222413   0.1156063  -1.1412668  -0.4605604
  -0.1320004  -0.1980789  -0.2151511   0.1637232   0.7812178   0.2473042
  -0.8219554  -0.2587001  -0.1936424   0.1940411   0.1688255   0.0554720
   0.3998342   0.0708361   0.0205459  -0.8180673   0.6554744   0.1691887
  -0.2681468   0.2980232   0.0331623   1.0849525   0.9286615  -0.0172886
  -0.7196156   0.2179601  -1.5325080  -0.0811913   0.3323826  -0.1247038
   0.7570271  -0.2661958   0.3684000   0.0433634  -0.1103524   0.4441541
   0.1416214   0.0454872  -0.3054760   0.0515557  -0.3663277  -0.2736539
  -0.3891256   0.4303910  -0.5878175   0.2159053  -0.0532974   0.2516010
  -0.7371528   0.2513964   0.4719519   1.3667533  -0.0723301   0.8224598
  -0.2325111   0.0976763   0.3766408  -0.0047913  -0.0746829   0.3096951
  -0.0176102  -0.1659363  -0.5511039   0.0570914   0.2774802  -0.1163320
   0.8403516   0.4794477  -0.5246504   0.7832753   0.2491305  -0.8699016
  -0.1076331   0.1638388  -0.3908071  -0.6536472  -0.5424046  -1.0413256
   0.1359100  -0.0955485   0.4981310  -0.0084580   0.0163005  -0.1891873
   0.2919562   0.7378365  -0.1437353   0.7066738  -0.0260260   0.8032875
  -0.1802679   0.2872744  -0.3604855   1.0232843  -1.0283151  -0.7244926
   0.9770950  -0.4174516  -0.9712315   0.0980385   0.1193203   0.0947573
   1.0789557   0.5832416  -0.4849434   0.1056197  -0.8374588   0.3300897
   0.0927256  -0.1118322   0.2523817   0.0796520   0.4020841   0.1070448
   0.8110770  -0.2112747   1.0262792   0.0361752  -0.1184198   0.0244737
   1.1650254  -1.5176652  -0.3357147   0.5539250   0.1105827  -0.6076131
  -0.4762097  -0.2898504  -0.0531038  -0.0750052  -0.8445964   0.0514333
  -1.3994364  -0.0287659   0.2213181  -0.1121920  -0.2921292   0.3260218
   0.5410155   0.1170031  -0.1636261  -0.2914914  -0.5306690   0.6365517
  -0.2434620  -0.4005553   0.4086722  -0.0489984  -0.0964308  -0.4928251
   0.3560156  -0.3058936   0.0935496  -0.4265385  -0.2352766   0.0724106
  -0.4743240   0.4562033  -0.1732939  -0.5232754   0.3623197  -0.0950217
   0.0494223   0.0343713  -0.2122816  -0.8278038  -0.5143752   0.7369656
  -0.0822089   0.8781268  -1.0188292  -0.1224219   0.1224694  -0.0494309
   0.1568734  -0.6525133  -0.4484511  -0.4281039  -0.6201302   0.2221056
   0.0001430   0.0239213   0.0147443   1.1871100   0.5941850  -0.1172769
  -0.8121258  -0.8898423   0.4396175  -0.2059501   0.1172116  -0.2084645
  -0.2133938   0.2638410  -0.4117110  -0.3679440   0.6934691  -0.4867395
   0.0100460   0.0324020   0.3092724  -0.0504007   0.1795254   0.5454079
   0.0773094   0.3053759   0.4131957  -0.2443006   0.0545900  -0.1387739
  -0.6524312   0.2911538  -0.1824886  -1.1055688  -0.0645870   0.1651087
  -0.3141460   0.2908357  -0.1224833  -0.5822089  -0.3095535   0.2244891
   0.1992245   0.2409894  -0.5395205  -0.6526376   0.0806349  -0.2139377
  -0.5931356  -0.5169301  -0.3230580  -2.0042211   0.1556758   0.6037923
  -0.1829296   0.1219246  -0.0570731  -0.0833820   0.1194152  -0.5451872
   1.0857501  -0.0873334  -1.1768841   0.0688739  -0.0859827   0.1135493
  -0.6388186   2.1797571   1.4534207   0.3073564  -0.2482987  -0.2565452
   0.0112840  -0.0587020   0.3725510  -0.0538446  -0.7233997  -1.2998277
  -0.1693357   0.0877007   0.3195964   0.0371716  -0.0211820  -0.4260379
   0.8050990  -0.4102626  -0.0421359  -0.0684313   0.7148187  -0.9770041
  -0.2224647  -0.1115540   0.0121434   0.1690675   0.4887035  -0.4420387
  -0.3057179  -0.1981719   0.2437687   0.0829222  -0.1377258  -0.0333410
  -0.1483019   0.0606218  -0.5418416  -0.4380651  -0.0651543  -0.2987136
   0.0632686  -0.2112433   0.2509591   0.7501252   0.1295518   1.3134074
   0.5899323  -1.1167997  -0.7221223  -0.1259178  -0.2357006  -0.3464731
   0.6322417   0.0683493  -1.9325631   1.1405032  -0.3144351   0.3344288
  -0.1175423  -0.0060338  -0.2883382  -1.0037922  -0.4730989   0.3040983
  -0.0329545   0.3696931   0.1567381   0.1872728   0.4252349   0.0387551
  -0.5402559   0.0634934  -1.0233148   1.7754504   0.7647950  -0.7615546
  -0.0867814  -0.2316392  -0.3490536   0.6617741   0.5291179  -0.1939608
  -0.6973797   0.4425488  -1.0672302   0.0120363  -0.0740569   0.0187913
   0.8449405  -0.2342382  -0.2777857   0.3732500   0.1053302  -0.5295925
   0.0780941  -0.0558293   0.2848074  -0.7336874  -1.0258383  -0.3823045
   0.0546150   0.2556749   0.6819281  -0.4172205   0.1455810   0.2570723
   0.0840429   1.0670433   0.3877666   0.1128868  -0.1363129  -0.3656959
  -0.0198315   0.0540385  -0.1849732   0.9351704   0.2970665   0.0695188
  -0.3997689  -1.2298991   0.2646969   0.3061842  -0.1706908  -0.3040055
   0.9040406   0.2464404  -0.0611077  -0.3801609   0.0627020   0.2470476
  -0.0820571  -0.2075759  -0.0379435   0.4719597  -0.5261194   0.1670070
  -0.0650174   0.1394633  -0.2094767  -0.1859353  -0.1206417  -0.0729947
   0.7586969   0.2335257  -0.1171700   0.6390887   0.2221436  -0.0717022
   0.0783764   0.2517215   0.0199368  -0.4533121   0.3655507   0.2762448
   0.2095962  -0.1743742  -0.0502556   0.4340289   0.2527065   0.2405726
  -0.6124145   0.9917237  -0.3118966  -0.0943860   0.2081300   0.2811400
  -0.4451779   0.2168883  -0.2103259   0.1566951   0.4981808  -1.2610548
  -0.5033926  -0.4903494  -0.2180775   0.0064044  -0.1637936   0.0682285
  -0.0222971   0.2133741   0.8970020   0.6262732   0.5462706   0.1313545
  -0.0017596   0.1002824  -0.1758039   1.2431052  -1.2453243   0.6255140
   0.2378091  -0.0626206  -0.2711030  -0.2293126   0.1466436   0.0306946
   0.2438194  -0.8616254  -0.4738043  -0.0820024  -0.4272998  -0.4725733
  -0.1757434  -0.3031976   0.0237631   0.3949661   0.9010497  -1.7104755
  -0.3269419  -0.2849664   0.3804078  -0.0955580   0.0746178  -0.3929871
  -0.8395434   0.7862732   1.0083805  -0.1929744   0.0438531  -0.2391281
   0.0043249  -0.0367659  -0.2438821  -0.7678408  -0.1368235  -0.0263703
  -0.5923898   0.0118164  -0.1314105   0.1532507  -0.0968336   0.3505155
  -0.5073275   1.3307778  -0.2334467  -0.5666885   0.4060176  -0.4400971
   0.1499147  -0.0488747   0.1004234   0.5953229   0.6745595  -0.2286171
   0.9716890  -0.4948486  -0.1069150   0.0349223  -0.0560311   0.1467877
   0.0488237   0.7916098   0.4417855  -0.1679983   0.2532861  -0.5877386
   0.1540725  -0.0855360  -0.3866312  -0.6218839   0.6460212  -0.5066910
  -0.1706047   0.0073228   0.8792985  -0.0452065   0.0845407  -0.2678401
   0.6544593  -0.8474794   0.5057413  -0.6115688   0.3382892   0.4543276
  -0.0151076   0.0721129   0.0984890   0.5970701  -0.9164353  -0.4968098
   0.8633161  -0.1581814   1.2503925   0.0988965   0.0280623   0.2103374
   0.0680066  -0.2364683   0.4501895   0.3908541   0.3462531   0.0263927
   0.3248679  -0.0235343   0.1789473  -0.3855770  -0.2101213   0.2081010
   0.1491856  -0.1398848   0.2058205   0.1440228  -0.4379188   0.2015588
   0.2371059   0.4194007  -0.1188332  -0.4088007  -0.8200330  -0.3769857
   0.0550395  -0.0471119  -0.2610804   0.1942173   0.2946070  -0.0827014
   0.3320286   0.0442559  -0.2666135  -0.1028556  -0.1845794   0.0709216
   0.2599766   0.7543569  -0.6101855  -0.0366860   0.0014092   0.7748261
  -0.1396812  -0.2358958  -0.2658511  -0.1202930   0.1837616  -0.0046017
  -0.1565216  -0.1353699  -0.3249451   0.1196855  -0.2297079   0.0855679
  -0.0307435   0.3949299   0.4285297   0.1581157   0.1392966   0.1672699
   0.0434297   0.1939917   0.1147135  -1.2304497   0.6879210  -0.5799192
   0.0529036   0.0285124   0.0169732  -0.0230208  -0.2556405   0.0889890
  -0.3647137   0.7146255   0.0524713  -0.1872395  -0.0766629   0.2955140
   0.0077157  -0.1343333  -0.2826854  -0.4592983   0.1665364  -0.8486965
   0.6162073   1.7717410   0.0862235   0.0824617   0.0240861   0.1982608
   0.4886236   0.2482708   0.3152765   0.0860318   0.6835360   0.1924904
  -0.1471821   0.0052229  -0.1808638   0.7646060   0.9315062  -0.4013004
   0.0207650   0.3390064  -0.2445518  -0.0967199  -0.1803098  -0.0555353
  -0.6274693  -0.7053150   0.5412240   0.1145018  -0.7609871  -0.5403671
  -0.3373543   0.1112536   0.1202598  -0.3485635   0.0869520   0.2690124
  -0.2307931   0.3383913  -1.2610282  -0.1084122  -0.0335689   0.1545111
  -0.0767234  -0.0532866   0.0527457   0.0323766   0.1860266  -0.3529215
  -0.3000668   0.1496912  -0.1208849  -0.8885264   0.1986013  -0.0550433
  -0.6202279   0.4847328  -0.0309368  -0.1303646   0.1750490   0.1041400
   0.4799464   0.1195040  -0.2430228  -1.3000439  -0.9119910   1.0443746
  -0.0639247   0.0329129  -0.1728153   0.1598850   0.3324972  -0.2953530
   0.4921844  -0.5709722  -0.6962498  -0.0927467  -0.0353617  -0.0327412
  -0.5013480   0.6661591  -0.5609241   0.7072788  -0.1791214  -0.0375233
  -0.2578154   0.1976159   0.0099183  -0.7121556   0.5477674   0.4351766
   0.2968763  -0.3555934  -0.6024238  -0.2047978  -0.0034870  -0.0499878
  -0.2033919   0.3312547   0.8049681   0.6881236  -0.2280887  -0.2016737
  -0.0198880   0.0766976   0.2896861   1.1485173   0.4105255  -0.2300593
  -0.0810050  -0.3207187   0.5519954   0.0521087   0.3427734   0.0038474
   0.9403556   1.0713494  -0.1459688   0.4162215  -0.3798019   0.7630349
  -0.0010546  -0.3394025  -0.0043909  -0.6650952  -1.1214061  -0.4396350
  -0.7576130  -1.1833030  -0.4567600  -0.1744443   0.3297163  -0.0845956
  -0.1245052   0.0213261   0.2640320   0.1846805   0.9793287  -0.3202957
  -0.3400683   0.0915377  -0.0829756   0.8495885  -0.5640864   1.0158418
  -0.5906370   0.3784468  -0.5463482   0.5411065  -0.0517799   0.0191347
   0.3957129  -0.3331759   0.9505352   0.4377753  -0.0849687   0.2764910
   0.1586213  -0.3889581   0.2920559  -0.6015187  -1.0800962   0.0580422
  -0.3100683   0.1933689  -1.1434868   0.1324078  -0.0152792   0.0169138
   0.3837431   0.1374804  -0.1912121   0.1189721  -0.3549240  -0.0859916
  -0.4388671   0.1409775  -0.1472292  -0.4075101   1.2443405  -0.4142881
  -0.3646359   0.5231091   0.9383400   0.2295004   0.1157063  -0.3271126
  -0.1932028   0.0959915   0.8320336   0.5442093   0.3143985  -0.7739722
  -0.1408037   0.1000186   0.1076281   0.5767480   0.2134381  -0.0744226
   0.3436803  -1.5187612  -0.1901313  -0.0320976  -0.0617354   0.0707219
  -0.4868876  -0.0418076  -0.5187459  -0.2627838   0.3453105   0.3862579
  -0.1981160   0.0315739   0.2773918  -0.9241937  -0.2652583   0.1425137
  -0.6957211   0.1770489   0.0996609  -0.2022776   0.0652103  -0.0953733
  -0.2261029  -0.4711886  -0.3547094  -0.1085505  -0.1863781  -0.4569721
   0.1440775  -0.0920289   0.1595411  -0.3064187   0.3366602  -0.2543554
   0.8795285   0.8945916  -0.3106459   0.3456372   0.0030714  -0.0429988
   0.0553171   0.0183031  -0.7962607   0.5604482  -0.2456632   0.4208136
  -0.1398458   0.2296479  -0.0368079   0.7316361   0.5263174   0.5315328
  -0.8661791  -0.3559660  -0.1998477   0.3283883  -0.0650125  -0.1909920
  -0.3076549   1.3632074  -0.3226645   0.3326609  -1.2693025   0.2122073
   0.0101896  -0.2110567  -0.1279445  -0.1427092  -0.0084554   0.0070641
  -0.2335494   0.0874278   0.0853443   0.0037285  -0.0329243   0.3217095
   0.2311710   0.1644149  -0.2747076   0.1632421   0.4665294   0.7388893
  -0.0728740   0.0160013   0.2961136   0.4144956   0.2589978   1.1837453
   0.0200061   0.7291172  -0.0803416  -0.0620402  -0.0615576   0.3119425
  -0.1033792  -0.7190095   1.0650713   0.4017455   0.1923399   0.2779964
   0.2830764   0.1856701   0.0696851  -0.0391287   0.2170055  -0.1498991
  -0.2275095   0.2361154  -0.2030699   0.0030369  -0.0648025   0.0314703
   1.0545045  -0.4536500  -0.1283084  -0.6754806  -1.0010430   0.0017828
  -0.2159382   0.1375553   0.0938008  -0.3560969  -0.0478690   0.0390998
  -0.0790615  -0.0675879   0.0660287  -0.1991758   0.2046742   0.3111494
   0.1693469   0.9851138  -0.1314309  -0.7401931   0.2284977  -0.5912824
   0.0887113  -0.1172448  -0.0115583  -0.5685336  -0.0534591   0.0493907
   0.2103230   0.2262315  -0.4968509   0.2721693   0.0644992   0.0387613
   0.8907468   0.2620260   0.0498611  -0.3628991  -0.0944619   0.1133580
  -0.2304968   0.1126320   0.1933861   0.2268362   0.0178838   0.6259537
  -0.2311107   0.1179214   0.2554969  -0.1483890   0.0341471  -0.0620078
   0.4788009   0.5402507   0.1151765   0.4351582   0.2183531  -0.1636692
   0.1375246   0.2522778  -0.2495214   0.4721820   0.4679913   0.6242176
   0.0120513   0.2997625   0.0123245  -0.0223507   0.1443527  -0.2701808
   1.4752921   0.3126996  -0.9938157   0.0286337   0.0234398  -0.8625206
   0.2662816  -0.2683054  -0.2039703   0.1998614   0.0143879   0.2143375
   0.2150852   0.3551027  -1.0624199  -0.3139290   0.0233358  -0.1117219
  -0.1016707   0.3127032   0.8433094  -0.5251686  -0.8505498  -0.1444468
  -0.1935969  -0.3053235   0.2388271   0.0886373  -0.6221201  -0.1211994
   0.2478584   0.6069227   0.8466777  -0.0169820  -0.0358927  -0.1117897
   0.4771094  -0.0677818   1.2079775  -0.8993042  -0.7926686  -0.3999807
   0.2781139  -0.0847272  -0.3216016   0.1343096  -0.0086057  -0.2096482
   0.6224956  -0.1902858  -1.0151475   0.2286189   0.0390914   0.0140743
   0.3737462   0.4696291  -0.3947311   0.2746268   0.1936522  -0.1335119
   0.0555998   0.0890139  -0.0772269  -0.0928930  -0.5049105  -0.7790239
  -0.1194885  -0.5080227  -0.8480795   0.0127356   0.4259910  -0.2709630
   0.1740733   0.3761013  -0.2788573   0.2097333   0.5017033  -0.6871505
   0.1363614   0.2330130  -0.1135592  -0.8813585   0.3769828   0.9654863
  -0.5972027   0.1847308   0.7487263   0.0387346  -0.1274010  -0.1369040
   0.0828987   0.2489297   0.0639208   0.2935983   0.3336932  -0.8986063
   0.0739866  -0.1247309  -0.2038018  -0.1332506   0.5272250   0.5934411
   0.4414758  -1.1115842   0.2635448  -0.0786224  -0.2185026  -0.1222752
   0.3041036   0.2567940  -0.8406422  -0.2535072   0.7212969  -0.6477236
   0.2080655  -0.3262416  -0.0418437  -0.5413800  -0.8973994   0.2370329
   0.6885917  -0.3684453  -2.0067165   0.2029977   0.1623039  -0.3078121
  -0.2936859   0.3703674  -0.1830970   1.0236098   1.0160109   0.1856093
  -0.1159777  -0.1240731  -0.2639078  -0.3586415  -0.8761933  -1.1965581
  -1.0043682  -0.2215592   0.4871950  -0.2355652  -0.3795956   0.3097266
   0.1945853  -0.6335531  -0.2148318   0.1179221   0.5490138  -1.6726819
  -0.0336520  -0.3171197   0.4730816  -0.3158029  -0.6226479   0.6076735
  -1.2605117   0.5175371  -0.0278547  -0.0433711   0.2356170   0.1672492
   0.3157537  -0.3335791   0.8475216   0.4095302   0.2910339   1.0830848
   0.0007157   0.1229880  -0.1743076  -1.2810090   0.5557143   0.9074048
  -0.7824914  -0.3904414  -0.7481458  -0.1733199   0.1173052  -0.0310743
   0.0431745   0.5114949  -0.3795128   1.4310564   0.4527662  -1.1875032
  -0.2607890   0.0253675  -0.0497555  -0.6677745   0.3228075   0.3085369
  -0.3269671  -0.2480131   0.6535297  -0.0898732   0.0583198   0.0170132
   0.1766535   0.2869931   0.7327113  -0.3316840  -0.6488414  -0.5121930
   0.2192927  -0.1196812  -0.2652265   0.3106452  -0.2396326   0.1645976
  -0.6523346  -0.5061654  -0.5047250   0.0938032  -0.3333978  -0.0094693
  -0.3076268  -0.9308663  -0.3009300   0.8872909   1.2327319   1.2026916
  -0.1340545  -0.0455881  -0.0150156  -0.6331118   0.3846187   0.5346202
   0.2806442  -0.5904849   0.4322339   0.2376810   0.0748050   0.0595648
  -0.3610160  -0.9198319  -0.2030671   0.1767731  -0.6387161   0.7151033
  -0.0492180   0.0754904  -0.0589516  -0.0894088  -0.3343372  -0.8451271
  -0.3582490  -1.0402605   0.5202300  -0.1127151   0.0575256  -0.3503681
  -0.2662011   0.2408456  -0.5735714  -0.0253326   0.8762984  -0.2644448
   0.1688271  -0.0218979   0.2617536   0.4835302  -0.3291216   0.3326690
   0.3070810   0.1320075  -0.1443387   0.0159435   0.4797436   0.1203911
  -0.1578978  -0.3454670  -0.5211422   0.0070320  -0.0156639   0.6565398
   0.1119586   0.0693299   0.0262216  -0.5550326   0.0604902   0.1263240
   0.7625273   0.3328358  -0.4808930   0.2304951  -0.0679240  -0.1728878
  -0.4592604  -0.0587256  -0.0194941  -0.6558169  -0.5472697  -0.0501779
  -0.1199715   0.1617239   0.3706298   0.0455437  -0.0117941   0.1736658
  -0.4808867   0.5808812   0.8388803  -0.2825002   0.0901328   0.2617306
  -0.2246804   0.4721986   0.3070594  -0.2561694  -0.0695687   0.4773646
  -0.2941998  -0.1123678   0.4454165  -0.4935874  -0.4330232   0.1260545
  -0.1744293   0.2835883  -0.2642647   0.2287544  -0.1304081   0.4182118
   0.5792237   0.2274175   0.9525077   0.2445004  -0.3262571  -0.5343088
   0.2506409  -0.2292112  -0.0077695   0.4904695  -0.5681806   0.2302750
  -0.2913722  -0.5431843  -0.2850300  -0.2743757  -0.0613676  -0.0513109
   0.5936881  -0.0439305   0.7816580  -0.1240895  -0.3951171  -0.4082395
  -0.1544922   0.2919317  -0.1303221  -0.6103619   0.2123302  -0.3672814
   1.3092813   1.0218787   0.7310076   0.0489282  -0.0958246  -0.0889576
  -1.0043748  -0.1495364  -1.1270478   0.2658255   0.1014690   0.1996054
  -0.0469872   0.0518866  -0.2794302  -0.2611031   1.1008206  -0.7386802
  -0.9565192   0.1076982  -0.8860175  -0.3668845   0.2359738   0.0090197
  -0.7380642   1.2523551   0.8725355  -0.6413410  -0.3223356   0.3050011
  -0.0332548  -0.0637683   0.1305334  -0.6628401  -0.2055846   0.7403181
  -0.0019758   0.6700646  -0.8452056  -0.3790984  -0.0933412  -0.1423204
  -0.5748775   0.9394545   0.3855763  -0.5569447  -0.1067454   0.0321155
  -0.1227423   0.0741458   0.2189818  -0.1005736  -0.0146430  -0.1651537
  -0.1237829   0.0256229   0.0669035   0.1836533  -0.1289220  -0.0213764
  -0.4229002  -0.6309567  -0.3382860   0.4143633  -0.4306025   0.6842630
   0.2287800   0.3507465   0.0696338   0.7291229  -0.3339509   0.2189115
   0.3887646   0.1415215  -0.1166074   0.2110916  -0.2990472  -0.2227906
   0.8320807   0.3378977  -0.7479423   0.7627738   0.2860833  -0.6516583
   0.3138953   0.1074658  -0.2668672  -0.3548602   1.2883721  -0.1885475
   0.0344575  -0.5539104   1.0600648   0.0554246  -0.0854354   0.0149319
   0.7201420   0.9863724  -0.8577445  -0.0772099   0.5523194  -0.1300866
  -0.0840049  -0.0177873   0.2229922   1.1154591   0.6296953   0.2312270
   0.7662088   0.6747635   0.2327667   0.2425661  -0.0271053   0.1109743
   0.1944427  -0.4977958   0.1780141   0.6070960   0.1039681   0.3064069
  -0.1340656   0.0855170   0.0042469  -0.1050511  -0.1894720   0.2409078
   0.1729661   0.4309924  -0.8579556   0.1108044   0.0544212   0.4253867
  -0.3256601   0.1741133   0.8855099   1.0722956  -0.3706451  -1.2319193
  -0.1235108  -0.0778425   0.2380959  -0.1376650   0.2306121   0.1524769
  -0.1784570   0.0260060   0.2412071   0.1430567  -0.3810353  -0.1144165
   0.3064542  -0.7449328   0.2057725   0.6119219  -0.6158446  -0.1991461
  -0.1015608  -0.0239500  -0.0838324  -0.1101123  -0.3904005  -0.2086041
  -0.1251787  -0.1209824  -0.1160579  -0.1448921   0.1421745   0.1567928
   0.1120916  -0.3358555   0.3845707   0.2089741   0.3417058  -0.2286549
   0.0211379  -0.1088090  -0.4551090   1.2164734  -0.3981222  -0.2983137
  -0.3220953   0.0330354   0.7347701   0.0354596  -0.1095757  -0.0361849
   0.6160929   0.9074543  -0.2267095   0.9606229  -0.8296236   0.2676626
  -0.4028892   0.0552833   0.0847858   0.4890028  -0.3718214   0.2824387
  -0.0732955   0.8501793   0.2451866   0.0774973   0.2542049   0.2315513
   0.0827301  -0.1924041   0.0131699   0.6266569   0.6678401   0.8357333
   0.3401411  -0.0944381   0.1590180   0.8629182   0.0112136   0.1082815
   0.6748807  -1.1309952   0.3805411  -0.0644213  -0.0787179   0.0749166
  -0.4191207   0.0769393   0.2632033  -0.4943699  -0.2228459   0.1873469
  -0.3567221   0.0758997  -0.1239999  -0.3251083  -0.7583278   0.2864906
  -0.1708722  -0.0987606  -1.0191905  -0.1594793  -0.0239449  -0.3045348
  -0.2939063  -0.1296619  -0.2068243   0.0830509   0.6533733   0.4004781
   0.2514686  -0.0029036   0.1033711   0.0521893  -0.6448463   0.3621080
   0.5710650   0.4550221   0.3165724   0.0066501   0.0724784   0.0616957
   0.2268382  -0.4867256  -0.8712050  -0.4415064  -0.4444987   0.1382579
   0.1661469   0.0346925  -0.2493308   0.2300010  -0.2050565  -0.4685131
   0.1491632  -1.1468519  -0.5492153  -0.0861257  -0.1517437  -0.0168984
  -0.4021277   0.3781153  -0.3247205  -0.0350668   0.1518618   0.4517283
   0.0302055  -0.1813959  -0.2633526  -0.2178602   0.1839305  -0.2054470
   0.4309070  -0.3419672  -0.1207591   0.2347808  -0.1075139   0.1476366
   0.1234988  -0.3390060  -0.2362600   0.2378734   0.5339344   0.7817663
  -0.1202081   0.1112652   0.2258683   0.5285567   0.5412052  -0.7199451
   0.1630893  -1.1873753   0.3557726   0.0375799   0.0595822  -0.1224365
   0.9621119   0.2673281   0.0736995   0.3276668   0.1233588  -0.1660000
   0.0015025   0.1035759   0.0187758   0.2133299   0.4751952   0.3984759
  -1.2735782  -1.4642910  -0.7081314   0.1016012   0.0738123  -0.2176711
  -0.3963779   0.5284577  -0.1186400  -0.7327716   0.5635826  -0.4659096
   0.1714673   0.0056618   0.0534138  -0.1163602  -0.4020704  -0.3476955
   0.2923952   0.3314963  -0.3417705   0.1707393  -0.1854724  -0.2218669
   0.5013068  -0.3802964  -0.3785644   0.0880065  -0.4156555   0.1649468
   0.3397100  -0.1802614   0.2908971  -0.0066224   0.3306331   0.4881410
   0.5975011   0.4720198   0.2642245   0.0170773   0.0538648   0.0877890
   0.1623151   0.2709218  -0.7847246  -0.6669035  -0.2650567   0.2234919
  -0.2000625   0.1452377  -0.1491162  -0.7581771  -0.4943919  -0.3355272
  -0.4906265   0.4609610   0.6094553  -0.0528819  -0.3547465  -0.0800681
   0.5424663  -0.6094363  -0.1522068   0.1753595  -0.1641091  -0.5328216
  -0.2525113   0.0733516   0.1642866   0.0393009  -0.0020604  -0.4245759
  -0.8100427  -0.3548363   0.1148370   0.2235124   0.0322145   0.1218850
  -0.1379729   0.1720195   0.5242690   0.2568434   0.0309004  -0.1227397
  -0.0950438  -0.0004917   0.0498808  -0.2357871  -0.1017311  -0.4660227
  -0.4432981  -0.3186812   0.6630000   0.0112127  -0.0845069   0.2478168
   0.3240131   0.9858603   0.6199425   0.0192285  -0.8103167   0.0304667
  -0.0933352   0.4221281  -0.4055776  -0.2572732   0.2950854   0.3154939
   1.3439375   0.2708033  -0.0336495  -0.2937995   0.1221395   0.0138867
   0.5594952  -0.0160133   0.1640024   0.6363465  -0.0171579  -0.2688580
   0.0033656  -0.1219525  -0.2020407   0.1872289   0.4720174   0.3556945
   0.1426290  -0.4518185  -1.1470076   0.3138580  -0.0182777   0.1480251
  -0.0035707  -0.0290247  -0.1454083   0.3054299  -0.0275348   0.1307796
  -0.0318678  -0.3607146  -0.0706051   0.6929216  -0.4705950  -0.3771497
  -0.3446150  -1.0415395  -0.2724701  -0.0384830  -0.2535535   0.2127417
   0.2965344   0.5349395  -1.7597758   0.8861914  -0.3936691   0.2538488
  -0.0066464   0.0522173   0.2566721   0.5749966   1.0303412  -0.3025732
  -0.3916223  -0.3757807   0.3304986   0.0780144   0.1023196   0.0321157
   0.3706135  -0.3771925  -0.5273888   0.4443747  -0.4788046  -0.3927738
  -0.0810778  -0.2968908  -0.0007126  -0.7743024   0.1161931  -0.1354352
  -1.5590615   0.0157996  -0.9889056  -0.0751914  -0.0236422  -0.3013511
  -0.2446246  -0.9431173  -0.7481101  -1.1741342  -0.5803609  -0.7042770
  -0.0197289  -0.1322051   0.4302822  -0.1659501  -1.0266648  -0.1642646
  -0.5776788  -0.4600979   0.9576629   0.0627134   0.1292386   0.1701452
  -0.1685505   0.4822755  -0.3764053   0.0333219  -0.2434768  -0.7144265
   0.1499458  -0.0032265  -0.3142599   0.1689653   0.5803401   0.7118249
   0.0366548  -0.5851630  -0.5960203   0.0905033   0.1462499  -0.0129908
  -0.6365939  -0.0967980  -0.9764620   0.4126677   1.3650149  -1.0965669
   0.1124573  -0.1164754   0.0096983   0.0023425   0.1832602   0.1265568
  -0.2443291  -0.0002031   0.2558652   0.2091738   0.0161283  -0.0766671
   0.7754447  -0.8170511  -0.4794461   0.3787742   0.1271148  -0.0654603
  -0.1180941  -0.0648425   0.3661256   0.2787706  -1.1619042   0.7342928
  -0.9881621  -0.2275533  -0.5668292   0.0565119  -0.0888530   0.0511766
   0.0778829  -1.7074572  -0.4449934  -0.4040461  -0.4466179   0.8190490
  -0.0220971  -0.0121363  -0.1764656   0.1448782  -0.1018280  -0.1231677
  -0.1474444   0.1104367  -0.1876274  -0.0069993   0.2038872  -0.0572105
   0.3257176  -0.1031793  -0.3794067  -0.5758009   0.4890929  -0.0248217
   0.0171934   0.1446020   0.1064826  -0.9208652   0.2096497   0.2876978
   1.1052985  -0.0140678  -0.5768285   0.1668926  -0.1766722  -0.1753826
   0.4233521  -0.4090830  -0.4982633  -0.4984046   0.3305953   0.6141885
  -0.0093133  -0.1246575   0.4119160   0.4084543   0.0440828  -0.4452861
  -0.0771613   0.2101748  -0.1842420   0.0199768  -0.1026389   0.2625374
   0.3800076  -0.5229789  -0.1459047   0.3544431  -1.4218113   0.5943205
  -0.1552651   0.0679174   0.0424730   0.1221600   0.7748698  -0.4382588
  -0.2452964  -0.1691164   0.1808838  -0.1990455   0.2087071   0.0703517
   0.1984403   0.9470253  -1.0897815  -0.1650392   0.7190484   0.3841642
  -0.2878487   0.2782829  -0.0141328  -0.2587413  -0.2324028   0.0647434
   0.0915750   0.3610171  -0.0294803  -0.2163512  -0.2029642  -0.1245347
  -0.8533362   0.5107787  -0.1313464  -0.1415201  -0.5767029   0.7703041
  -0.1588126   0.4135546   0.1913218   1.4818521   0.6056074  -0.5076698
  -0.7317062  -1.1032046   0.4166845   0.1150944  -0.4473203   0.0177182
  -0.2798944  -0.6904668   0.1547797   0.1890979  -0.1290269   0.3681095
  -0.0497630  -0.3422177  -0.0222378  -0.2554324  -0.0797642  -1.4182850
   0.9787669   0.3053427   0.0974984   0.1347184   0.4774877  -0.1075314
  -0.1126718  -0.2668048  -0.1370916  -0.0496789  -0.0868551  -0.1558732
  -0.1065062  -0.0049253   0.2336973  -0.1765891  -0.3539619   0.3625782
  -0.1989915  -0.3293070   0.3814009   0.0469061  -0.1750839   0.0868063
  -0.2174359   0.6205721   1.0603534  -0.8019231   0.2876127   0.4675280
  -0.0737518  -0.0698860  -0.1026526   0.7961991  -0.2374629   0.8636312
  -0.8457098   0.6661850  -0.0900057  -0.2282672  -0.0668808   0.0446688
  -0.0468356   0.1848626  -0.1460278  -1.2617601   1.0315348   0.2068888
   0.1713400   0.1748648   0.2031935  -0.5724915  -0.6275820  -1.0667997
   0.1318723   0.4598350   0.0000324  -0.1104447  -0.1868596   0.1012989
  -0.4441869  -0.8982531  -0.7817666   0.0782536   0.3288942  -0.1094343
  -0.2583809   0.0276728   0.0518201   0.0122084   0.5359601   0.1035478
  -0.0331153   0.3704992   0.1209201  -0.0688104   0.0929835   0.1425838
  -0.8428997   0.2480129  -0.3685367   1.5487892   0.0689897   0.1237427
  -0.0003868  -0.0339240  -0.1209857   0.4790951   1.1676307   0.5807201
   0.7390437  -0.9213695   1.0893920   0.2722256  -0.1702103   0.1627873
  -0.6986648   0.3246278   0.9897180   0.6659652  -0.7983791  -0.2524706
   0.1401034   0.1192989   0.2479586   0.9281859   0.2523405   0.5962702
  -0.4538194  -1.2349299  -0.6772977  -0.1653789   0.1941779   0.1838588
  -0.9546096   1.0828950  -0.5589370   0.1435652  -0.5303594   0.0067296
  -0.0804470   0.1236591   0.0529014   0.0268913   0.2576121  -0.3395239
   0.2582933   0.0682394   0.0346206   0.2162952   0.3094063   0.1961110
   0.3658611   1.2359060   0.6037828  -0.5426634   0.1836757   0.0507014
   0.0982018  -0.0253083   0.0589819   1.4180756   0.7568232   0.6278920
  -0.3144333  -0.1473483   0.1125310   0.1898926  -0.0136090  -0.0184026
  -1.2851508   0.4371658   0.7089658   0.8692105  -0.0052233   0.0413964
  -0.1465535  -0.0770424   0.3354820   0.0081813   0.0291820   0.0910293
  -0.1331128   0.3362926   0.0261230   0.1694637   0.3059732  -0.2087265
   0.7925990   0.7778998   1.1877731   0.0514604  -0.6797741  -0.1336123
   0.2804766  -0.1804531  -0.1783979  -0.6125226   0.3518520  -0.9560605
  -0.3594624  -0.7683777   0.3313643  -0.2431987  -0.0270841  -0.0383585
   0.0311093   0.2200016  -0.6404308   0.2840365  -0.3993781   0.2839449
  -0.0948455  -0.2467143  -0.2349686  -0.3535812   0.1959479   0.3231514
   0.7032734   0.8133154   0.8624958  -0.1093805  -0.1595730  -0.0360654
  -0.8065215  -1.5400954   0.5888617   0.3148700   0.2653534  -0.1167629
   0.0450173  -0.3073410   0.2076659   0.2270414  -1.4065526   0.6611591
   1.1463851   0.0410979  -0.4946659  -0.0897801  -0.0548916   0.0333737
  -0.4552088   0.2217140  -1.1322754  -0.6097562  -0.2005799  -0.7742190
   0.0404137   0.0714714  -0.0161114   0.2719023   0.0013379  -0.4488915
  -0.1091400  -0.1191738   0.1164527   0.1050921   0.2093268  -0.2204672
   0.1370477  -0.4350325  -0.0725662   0.2013680   0.1798400  -0.4956067
   0.1860007  -0.0322340  -0.1214115   0.0987965   0.3488953  -0.4806693
   0.3062370  -0.5453386   0.3592823  -0.0178085   0.1255096   0.0653950
   0.1975926  -0.5033986  -0.2049787   0.0199973   0.0207611   0.3122446
   0.2825280   0.1699494   0.0265535   0.3658619   0.2741964   0.1144028
   0.2114945  -0.0246526   0.0632434   0.0446878   0.0696065   0.0241227
  -0.3729685  -0.4861411   0.4193017   0.1777782  -0.4162794  -0.4608869
  -0.0696152  -0.0014200   0.1532888  -0.0935022  -0.3214286   0.3950566
   0.2434520  -0.3179994   0.5258134  -0.2427336  -0.1495059   0.0805647
  -1.1350145   0.5793747  -0.1175368  -0.0573217  -0.6680203  -0.4817835
   0.0009505   0.1977654  -0.1360451   0.1258389   0.4182322  -0.0127863
   0.0023071   0.0728913  -0.3819516  -0.3601218   0.0003200  -0.2852644
  -1.1258080   0.5517580  -0.0389868  -0.3593613  -0.0777673  -0.6942466
   0.3945697   0.1317521  -0.0818013  -0.2286816   0.5558115  -0.1688815
  -0.9767464  -0.1494985  -0.3211814   0.0475533  -0.2034433   0.0205140
  -0.0543984  -0.1568798   0.0652086  -0.3868689   0.0311605  -0.5917514
  -0.0453795  -0.1149894  -0.1480433   0.1824225  -0.0533648   0.4236598
   0.2285341   0.1228847   0.6440864  -0.1515300   0.0356556  -0.0736276
   0.0783753   0.0632513   0.5654119   0.1278438  -0.3007464  -0.6720431
   0.1204063  -0.1077693  -0.0362497   0.7570921  -1.0531643   0.1678023
  -0.8246254  -0.1630206   0.3008196   0.2186493   0.1064499  -0.1625835
  -1.0254301   0.1905747   0.8608352   1.0694970   0.4235327  -1.0664910
   0.0075973   0.2043831  -0.1307656  -0.0904106   0.3074406  -0.7601928
  -0.1958886  -0.9801771  -0.0636275   0.1748005   0.0140167   0.0094149
  -0.2611126   0.5300300   1.0700648  -0.0162381  -0.7089354  -0.3327156
   0.1779704   0.0828427   0.0953652  -0.0624500  -0.1680164   0.0731983
  -0.4148648   0.1664818   0.0082845  -0.0371914  -0.0605801  -0.1880299
   0.0672613  -0.0504860  -0.4400714  -0.1026500  -0.3114371   0.2043993
  -0.1735913  -0.1801913  -0.0327417   0.1470662  -0.2213912  -0.1319857
  -0.7076620  -0.3062576  -0.0622503   0.2720805   0.1237631   0.1526650
  -0.7596274   0.0674817  -0.0668061  -0.1503185   0.7791702  -0.5686175
   0.1953069   0.1652257  -0.2440384  -0.3067443   1.3280776   0.1179306
   0.7038142  -0.6676588  -0.3547456   0.1098923   0.1252416  -0.0063140
  -0.2940327   0.2911906  -0.2568054   0.7949099   0.2415306  -0.1481172
  -0.0037003  -0.2631481   0.0220927  -0.1588667   0.0359529  -0.4328377
   0.0453224  -0.0908289  -0.1730563   0.0185709   0.5137272  -0.3219039
   0.1490283   1.0431345  -0.2759540  -0.0203775   0.2800670  -0.4044864
   0.1100804   0.0675668   0.1204549   0.5199288   0.0628794  -0.2291952
  -0.2797457   0.4144999   0.1638408  -0.2808378   0.3395547   0.2154686
   0.5384241   0.2653343  -0.4215805  -0.0851314   1.2066544   0.2201400
  -0.0827357   0.2288314   0.0007076  -0.1829266  -0.3563937   1.1433821
  -0.1207559   0.0857852   0.3798690   0.0036149   0.1472589   0.1801353
   0.0930303   0.9521877  -0.2512267   0.5238508   2.4184709   0.7038675
   0.0837018  -0.1198820  -0.2953333   0.3472594  -0.3958852  -0.6312343
  -0.3408002  -0.3752884  -0.1186485   0.0835943   0.0561595  -0.1533074
   0.3253739  -0.6338173  -0.6727914  -0.0545850   0.7169670   0.1373781
   0.1655860   0.0221920   0.1947859   0.1171545  -0.7700850   1.0420556
   0.2864908   0.4226274   0.4792637   0.1000759  -0.2899089  -0.0637801
  -0.6566964   0.2621906   0.0156027  -0.3997908  -0.6331098  -0.5642241
  -0.2986314  -0.0075120  -0.0027750  -0.1031039  -0.3149067   0.0861459
   0.5360113  -0.6437609   0.2776148   0.2281749  -0.1654910  -0.0644006
  -0.2598519  -0.1137571  -0.3709594   0.4530048   0.3247317   0.5172022
   0.0750888   0.0423539  -0.3137369   0.6625697  -0.2470094  -0.8785025
   0.7679965  -0.2942658  -0.9927914   0.0201636  -0.0514646   0.0069191
   0.3469032  -0.6624408   0.3876145   0.3663918   0.4739260   0.4052407
   0.0299900   0.3595675  -0.2610283  -0.2962613  -0.4416865  -0.5943561
   0.0882228  -0.7178649  -0.9544961   0.0732363  -0.2268963   0.0108407
  -0.2718412   0.4509172  -0.1426722  -0.3959576  -0.6237639   0.4858343
  -0.0303456   0.1089059  -0.6406432   1.1820620   0.9993866  -0.8898406
  -0.4672698  -0.4477436  -0.8655690  -0.1697969   0.0094284  -0.1991160
   0.2135275  -0.3038628  -0.4014477  -0.3013722  -0.4840558  -0.1197830
  -0.0286419   0.0122465   0.0063174  -0.0626763  -0.3478960  -0.9476703
   0.2587974   0.4775481   1.1116235   0.0777053   0.1927542   0.1251971
  -0.7063993   0.3930979  -0.4218743   0.0519856  -0.2120507   0.5884215
  -0.0033714   0.1725814   0.0558496  -0.1253395  -0.0063820   0.1331280
   0.2604709  -0.3191386   0.0372081  -0.1793913   0.0736277   0.0562417
  -1.0636628   1.0688511   0.2365972  -0.0580683  -0.1056684  -0.9515721
   0.0493304  -0.1455249   0.2092500   0.4313107  -0.0966320   0.2641146
  -0.2591141   0.3371149   1.1741230  -0.1524719   0.4645080   0.1472652
  -0.9455441   0.4949497  -1.3758311   0.4869889  -0.5632775  -0.8450352
  -0.0043991   0.3851447   0.0922811   1.3624878  -0.6284414   0.2261154
  -0.3312077  -1.0118095  -0.4163773   0.1705415   0.0689407  -0.4406910
  -0.6654758  -0.4068397   0.2306297   0.9524897  -0.1997123  -0.8922621
   0.3259392   0.0214560   0.0046552   0.0334951  -0.3746246   0.4017704
  -0.0935138   0.3761679  -0.1810385   0.0840861   0.1311802   0.1033862
  -0.6286072  -0.4378127   0.6389516  -0.4374660   0.7006258  -0.6438820
   0.1848765   0.2113761  -0.1681677  -0.9308306  -1.2548228  -1.8781672
   1.4060995   0.3272294   1.0370677  -0.1382607  -0.2322275   0.2725580
   0.3810670  -0.1006577  -0.1464564  -0.4784892  -0.0741072  -0.1611104
  -0.0502695   0.3016261  -0.0667051  -0.9297968   0.0170511   0.3598523
   0.4934606   0.5298087  -0.1808218   0.0851750   0.2124626   0.5287696
  -0.3750947   1.0097281   0.7331364  -0.1711090  -0.1251185   0.6393825
  -0.1576455   0.1109549   0.3366419  -0.6086461   0.6598208   0.4939244
   0.7531064  -0.0155124   0.6766125  -0.0925411  -0.0798532   0.2267135
   0.0331613   0.1634955   0.5803310  -0.2715364   0.5098394   0.0384469
  -0.2608487  -0.2043077  -0.1920625   0.9743653  -1.3332807   0.4996499
  -0.6885000   0.3331571  -0.3831141   0.1446079  -0.0553965   0.3661954
   0.4137454  -0.2034645   0.6468022  -0.6424430  -0.1411529   0.4480235
   0.0390433  -0.1507892   0.1359815  -1.3334481   1.1773983   0.4601860
   0.6731710  -0.6185080  -0.9401708   0.0647690  -0.1260778   0.2919731
  -0.1885220   0.5895985   0.6563991   0.7579831  -1.1439310  -0.0260711
  -0.1672235   0.1211515  -0.3870407   0.0425787   1.6915045  -0.4270928
  -0.5346044   0.0417139  -0.9010307   0.2390143  -0.1600317   0.2886999
  -0.1320461   0.4888561  -0.4885665   0.3194815  -0.1185789  -0.5091483
   0.2111510  -0.3122653  -0.1822584   0.9457258  -0.2975699   0.1372755
   0.0999989  -0.5973263  -0.7149579  -0.1773647   0.0644763   0.2412900
   0.1123359  -0.3863395  -0.3726576  -0.7096070   0.7241830   0.5299832
  -0.1032491  -0.1697652   0.0288834   0.6954862   0.7191009   0.0764901
  -0.0855856  -0.3910799   0.0898400  -0.0598466   0.0067132   0.3337761
  -1.2062076  -0.9401060  -0.8401777  -0.6295596   0.0864275   0.1324064
  -0.0599493   0.0735853   0.3040119   0.4498208   0.7139903   0.5631098
  -0.0408366  -0.4269501   0.3795524   0.0354075  -0.0809228   0.1729358
  -0.5391701   0.5776313   0.1182285  -0.6398576   0.5848915   0.1186167
   0.2187435  -0.2388637  -0.1929388   0.7094197   0.2289476  -0.7287696
  -0.0583669  -1.0043626   0.2740753   0.2561759   0.0988356   0.3557041
   0.4799332   0.6973612   0.1800479   0.3619730  -0.0565090   0.3938244
   0.0928970  -0.1588089  -0.0087418  -0.3659858   1.4039126   0.2472997
  -0.4396182   0.3741828  -0.1151224  -0.1369510  -0.0371881   0.1933570
   0.2255369  -0.3512671  -0.2041798   0.2390469  -0.4981842  -0.8398844
  -0.0068468  -0.0290816  -0.0670020  -0.4124554  -0.2382379   0.1296374
  -0.0613039   0.1483351   0.2178016   0.1513424  -0.0017156  -0.3256032
   0.0857407   0.1024083  -0.2237859   0.2645836  -0.3769026  -0.6778965
  -0.2043826   0.3413737   0.1430593   0.1237130   0.5999022   0.1570548
   0.0668470   0.3285314  -0.9126534  -0.0769115  -0.3771182  -0.0299196
  -0.3470805  -0.6129084   0.2676090   0.4542440  -0.4434847  -0.4543049
   0.1711237   0.0864942   0.1507554  -0.1723353  -0.2200775   0.2046822
  -0.2274970  -0.0450243   0.2038689  -0.2288851   0.2117718   0.1305326
   0.5254341   0.3650073   0.3207473  -0.1313263   0.2362228   0.1546149
  -0.1690415  -0.3045055   0.0407833  -0.4793676   0.4140159  -0.8824583
  -0.5445135  -0.1812944  -0.1709492   0.1978564  -0.0743496   0.0591830
   0.0702456   0.2996829  -0.1259053   0.0231179   0.7145078   0.0545162
   0.0316409  -0.1173552   0.0419566  -0.0371641   0.6611209  -0.1292057
  -0.0283710  -0.4599569   0.0978938   0.1200608   0.0016339  -0.0184912
   0.3461164   0.7901549   0.1713243  -0.4659202   0.0508570   0.4060437
   0.1032564  -0.0471617  -0.2476423   0.1273251   0.9605055  -0.4950715
   0.1000848   0.0757772  -0.2776260   0.1202947   0.0971308   0.0201666
  -0.3623023   0.2004912  -0.2301334   0.0462210   0.3077960   0.6024116
   0.0660544  -0.2916260   0.0220679   0.8973175   0.5202633  -0.5237013
  -1.0758753   1.3545490   1.0110810  -0.0485192  -0.0096202  -0.0619806
   0.7500449  -0.0480353   0.5992174   0.7527066  -0.7543111   0.4309240
   0.0842650   0.0320862  -0.1032881  -0.3004565   0.4856304  -0.3328247
   1.2753433   0.1315237  -1.1511021  -0.0739011   0.3213532   0.0845151
  -0.3448359   0.2419617   0.4491292   0.0422492   0.4732660  -0.2152049
   0.2000639   0.1713983   0.0689480   0.5894505  -0.1034395   0.0918658
  -0.0001854   0.3213087   0.0796219  -0.0607100   0.0275383  -0.1127913
  -0.2823456   0.2638536   0.3573223   0.0372180   0.5731681  -1.0663754
  -0.0510371  -0.0316113  -0.3624015   0.0091819   0.2605693  -0.6002430
   0.0108760   0.0477792  -0.3856817   0.0299180   0.0408482  -0.2951507
  -0.4845549   0.5626149  -0.6843212  -0.0464175  -0.0320109   0.4028163
  -0.0929403   0.3535690   0.2583494   0.7110516  -0.2336606   0.0941965
  -0.0262241  -0.7189710  -1.1393411   0.1079388  -0.1065556   0.0185693
  -0.3240514  -0.7687247  -1.0671718  -0.1057467  -0.3835293   0.1171803
  -0.0344936   0.0975525  -0.3323073  -0.4982824   0.2632148  -0.6200771
  -0.4592802  -0.6517511  -0.4076396   0.1252107  -0.1717184   0.0365720
   0.5291928  -0.8755623  -0.3250566  -0.4498689   0.1774737   0.4620468
   0.0531293  -0.2405288   0.1985460  -0.1929218   0.0678376  -0.2078775
  -0.4940358   0.4891086  -0.2130796   0.0142791  -0.1044827   0.0089623
  -0.4160294  -0.0390775  -0.0360596  -0.2884087  -0.1739195  -0.5534127
  -0.1665764  -0.2374533   0.0397920  -0.4106517  -0.1054267   1.0804130
  -0.4953236   0.2995543  -0.1280634  -0.1663059  -0.2544296  -0.1641551
   0.0409446  -0.2880397   0.2974499   0.0849971  -0.4919829  -0.2918314
   0.0074114   0.1519836   0.0070400   0.3129321  -0.0561939   0.1594487
  -0.1088181   0.4788309   0.3196486   0.1119098  -0.1405240  -0.0132489
   0.1528946   0.1921946  -0.7138238  -0.6700015  -0.4811185  -0.0652137
  -0.0174397  -0.1141029   0.0293974   0.4101743  -0.6298639  -0.3323503
  -0.8639781   0.8674544   0.5296156  -0.0806617   0.1014696   0.1021310
   0.5608163   0.2092428   1.2142477  -0.7706051  -0.1174157  -0.4996383
   0.1373257   0.0289210  -0.1103180  -0.9295302  -0.8901878  -0.2740099
   0.1319254   0.3852332   0.2001205   0.1228377   0.1581181   0.0725129
  -0.1816399  -0.7688846   0.0688039   0.3174886   0.1762993  -0.4865864
   0.2547830  -0.1872420   0.1743319  -0.1705187  -0.1469667   0.6352790
   0.3862231  -0.1616022  -0.2761039   0.0713573   0.2884837  -0.3527090
  -0.2300711   0.5592660  -0.4559433   0.5373702   0.0254116   0.2980864
  -0.1946443  -0.3031884   0.1021655  -0.3205033  -0.4046355  -1.2728296
  -0.7307866   0.2412711  -1.2565177   0.0496356   0.3777116   0.0150029
   0.3434923   0.4317958  -0.3064773   0.1657250   0.2054857   0.7061747
   0.0318221   0.0512515   0.1213370   0.2219432   0.2242483   0.4115551
   0.0583673  -0.2192735   0.9797265   0.0095811  -0.1942789  -0.3434754
   0.4076546  -1.2895851  -0.6928955  -0.6914652  -1.0456792   0.2970439
   0.0649735   0.3396982   0.0342427   0.4591878   0.1632533  -0.1151087
   0.1136798  -0.6870741   1.1216580   0.0752836  -0.0783001  -0.2234185
   0.1157269  -0.2602504  -0.1116155  -0.3099965   0.6824050  -0.5474644
   0.0122031  -0.1557587   0.1816816   0.6370109   0.0305475   0.7896671
  -0.3112398  -0.9649997   0.4542664  -0.1472921   0.0672264   0.0088548
   0.0682141   0.2670808   0.4230334  -0.5533058   0.3733371   0.3540440
   0.2482076   0.0655732  -0.2601439  -0.3070205   0.4757424  -0.2511005
   0.2685268  -0.4738714  -0.2282928   0.1354721  -0.0207805  -0.0295938
   0.4167613   0.0357911  -0.2232792  -0.0941198   0.0514251  -0.3199571
  -0.1680550   0.0036068  -0.2050026   0.2806111   0.2301615   0.2892737
   0.4863033   0.6527575   0.0261902  -0.1279985   0.0896391   0.2013409
  -0.4614438  -0.2053286   0.6640643  -0.3590532  -0.0513673   0.5388340
   0.1523261   0.0236100   0.1151258   0.2989654   0.1213733   0.2304122
   0.2403191  -0.1739592  -0.0522585   0.0928908   0.1629763  -0.1406317
   0.0094746  -0.4982826  -0.2311100  -0.0223747   0.2186871   0.5931841
   0.2100919   0.2558742   0.0499506   1.0688433  -0.5494791  -0.4623939
  -0.5280867   0.5518361  -0.5545045   0.1597350  -0.0665167   0.0936484
  -0.6348486  -0.1313720  -0.3851078   0.3393782  -0.2317952   0.0398130
   0.2091623   0.0149024   0.0057983   0.5579017  -0.1180540   0.1077695
   0.2674844  -0.5511708   0.5889842   0.0932324   0.0311862  -0.0591380
   0.1245308   0.0436806  -0.0566765   0.0272451  -0.0183533  -0.3692360
   0.1438454   0.1577090   0.1057558   0.7217894  -0.2924154   0.8172320
   0.1988656   0.7595869  -0.2266931   0.3221260   0.1476925   0.0007421
   0.5608748   0.3168664   0.1979937   0.3058221   0.0278857  -0.3919259
   0.1750674  -0.1305313  -0.1312036   0.6784934   0.3151220   0.1776442
  -0.1758339  -0.5094614   0.1841225  -0.0926759   0.1417043  -0.1517687
  -0.3493183  -0.8536598  -0.4685075  -0.0186249   0.2370218   0.2146068
  -0.2112948  -0.1581365   0.0505660  -0.1029250  -0.0807569   0.4978137
  -0.7052472  -0.0868714  -0.2752942  -0.2007388  -0.1496234   0.1767584
   0.2057940   0.7382037  -0.1952521   0.3050678  -0.9447723   0.4114846
   0.1664460  -0.2122725   0.0182400  -1.4173680   0.6980778   0.9010381
   0.0075808  -0.6982229   1.8247109   0.1512585  -0.0132172   0.3204361
   0.8715484   0.4071021   0.3199240   0.5254017   0.3821485   0.6485044
  -0.0656806  -0.0304136   0.1924559   1.1005477   0.0548558  -0.9558030
  -0.8694327  -0.1640589  -0.4961821  -0.2313363  -0.0045698   0.0668876
   0.1271976   0.2943208   0.3886618  -1.1125853  -0.3996843   0.8885116
   0.0074485  -0.0119438   0.0034249  -0.4693160  -0.5056808  -0.0651694
   0.2552659   0.2101476  -0.1702093   0.1697363   0.0387684  -0.0746303
  -0.0056275  -1.1154037   0.6983736   1.3715897  -0.3582461   1.2783449
   0.5549626   0.1724938  -0.1721380  -0.7558646  -0.0117472  -1.2346326
  -0.2038553   0.1624223   0.0539010  -0.1289953  -0.0028491  -0.3288101
   0.7511063   0.0071612   0.3809497  -0.5034841  -1.1364990   0.7938343
   0.0147723   0.2339457   0.1780500   0.4748445   0.3913779   0.1616270
   0.0497269  -0.3039808  -0.1191652   0.0124050   0.2174901   0.0501384
  -0.0507815   0.3764602  -0.4253918   0.0175855   0.6325409   0.4144647
   0.0353770  -0.1534897  -0.1730869  -0.3256773   0.3312925  -0.1508562
  -0.8656353   1.2491213   0.0009700  -0.0178351   0.0361490   0.0818283
  -0.3545814   0.3780235   0.3028312  -0.3352886  -0.1758298   0.6660124
   0.0406811  -0.1485266   0.0916748   0.1170403  -0.9607265  -0.4455018
  -0.5049657   0.1562581  -0.1018277   0.2411885  -0.0890112   0.0843601
   1.3441163   0.4281226  -0.5030127   0.4128808  -1.0664322  -0.2990299
   0.0198157   0.0830193  -0.1422887  -0.2671598  -0.3391484  -0.5514601
  -0.5264302  -0.3417128  -0.4881101   0.1811373  -0.0648311   0.2934281
   1.3232430   0.1415568   0.9404198  -0.7299529  -0.5268798  -0.3745702
  -0.0372739  -0.1099322  -0.3287056   0.3623004  -0.5512657  -0.2573422
   0.5077620  -0.7273080  -0.2847546   0.2061336  -0.0128294   0.2432005
   0.4414591   0.2050183   0.0008498  -0.2226524  -0.3455916   0.5024668
  -0.1912524  -0.2115141   0.0693042  -0.3126578  -0.5474021   0.1535849
  -0.2291511  -0.5005089   0.6215603   0.0670822   0.3051082   0.2082629
   1.1772583   0.2812308   0.1975510  -0.8103890   0.4137329   0.1083751
  -0.2882836  -0.2196508   0.2063727  -0.1198612  -0.8159596   0.3482385
  -0.0228152   0.1665117   0.7443911   0.2334794   0.1531119   0.0398410
   0.6709610  -0.5405556  -1.3610615  -0.0102960   0.6331257   0.2068610
   0.1978614   0.1765150  -0.0540470   0.0219751   0.3124811  -0.2606986
   0.6015587   0.5155576  -1.0496864  -0.0620409  -0.1132143  -0.1853217
  -0.1512628  -0.3017813   0.0266406   0.4702693   0.2218170  -1.1275262
   0.0423588  -0.1152942  -0.0100357  -0.0170238   0.2855798   0.1502979
  -0.3937259  -0.5906624   0.1160903   0.0288187  -0.5378629   0.0324193
   0.1727066  -0.0529911   0.0530189   0.0287718  -0.8650929   0.5884582
  -0.2314031  -0.3584991   0.1432400  -0.1427234  -0.6152625  -0.0067884
  -0.2083495  -0.4764335   0.4918340  -0.4033893   0.0398603   0.1282439
  -0.3080381   0.2092474  -0.6433655   0.3431487   0.4021467   0.4155628
  -0.1819109   0.0299786   0.3207021   0.3839211  -0.4198240   0.0101821
  -0.4990418  -0.9593257   0.7874389  -0.4554264  -0.1158947   0.4062748
   0.3520517   1.3192884   0.1488492  -1.0961069  -0.3511433   0.4459045
  -0.1745474   0.0852985   0.1044380  -0.0625650  -0.3703105   0.2001985
  -0.4632749  -0.2468430  -0.0841022   0.1899859   0.2242884  -0.0980353
   0.0096420   0.1449315   0.3128788   0.4495948  -0.8265960  -1.3752468
   0.1147252  -0.0696370   0.0113362  -0.4479680   0.0325305   0.5246515
  -0.2867643  -0.1227033  -0.5834381   0.0549470  -0.1627641  -0.1824103
  -0.3775784  -0.0158282  -0.0806048   0.0460124  -0.2254425  -0.6330201
   0.2573574   0.1738703   0.3090794   0.4248168   0.0124510   0.2423771
   0.7569254   1.2874560   0.3580567  -0.0178186  -0.1800715   0.1987462
   1.1736739   0.1769102  -0.6349688  -1.1114242   0.1208973   0.2954589
   0.2827493   0.1533276   0.0926022  -0.2948705  -0.6211058  -0.3302535
   0.6090182   0.7042302  -0.8356123  -0.0586473   0.1503840   0.1331726
  -1.2386882  -0.5198218  -0.0411871   0.2086179   0.4015835   1.9845089
   0.0907202  -0.0216217   0.0204486  -0.0347678  -0.2891267   0.1385588
   0.1391447  -0.1366997   0.0802531   0.3668225   0.2398954   0.0000166
  -0.4670720   0.5390535  -0.0644501  -0.1298202   0.3205473  -0.2215678
   0.3573665  -0.1181792  -0.0515323  -0.8370155   0.3225462   0.3461767
   0.6836627   1.0220473  -0.5650186   0.2370342   0.1330942   0.0174678
   0.1365724   0.0257887   1.6510538   0.0687093   0.0120696   0.9600889
   0.1794571  -0.1529039  -0.2122807   0.2100573  -0.6749148   1.0234215
  -0.2140405  -0.9794303  -0.8781008  -0.3310389   0.1778798  -0.0104341
   0.5278156  -0.0885767   1.0986487  -0.2732229   0.7765312  -0.1552016
   0.0059774  -0.0330540  -0.0797189   0.0010021   0.1295771  -0.0560785
  -0.0864341  -0.0581895  -0.2164673   0.2599459  -0.1562857  -0.1212526
  -0.7033901   0.9617864  -0.5009970  -0.2873701   0.4066727  -0.4194562
  -0.1281880   0.1249135   0.1232549  -0.7148881  -0.0863660   0.0823981
   1.3019049   0.6343113   0.1963583  -0.0370407  -0.3612269  -0.0443749
  -0.1072401  -0.1983041   0.4260529  -0.5890693  -0.0540405   0.5235531
  -0.1393185   0.2281031  -0.1636703   0.2498296   0.0820166  -0.0436658
   0.1429526  -0.1482648  -0.2684126  -0.4060673  -0.0735827   0.0120316
   0.8093251   0.3835897  -0.0861247   0.3343755   0.2647197  -0.3408232
   0.1586390   0.2052910   0.0221066  -0.5758421   1.1385300  -0.4870889
  -0.1111823   0.3629595  -0.2399692  -0.1291729  -0.0322320   0.0890039
  -0.3825830  -0.1144016   0.5428397   0.3486408   0.6333644   0.4393237
   0.0061489   0.0570080   0.1075619  -0.2718757   0.1283569  -0.0803639
   0.5090932   0.1627420  -0.1098416  -0.3767808   0.3961578  -0.1186636
  -0.2195264   0.8246975  -0.2892414  -0.5952117   0.0184350  -0.1628838
  -0.2076141   0.1700999  -0.0657687  -0.8521702   0.4204672  -0.2407703
  -0.3868257   0.2429458  -0.1073321   0.2744490  -0.1053925   0.2554648
   0.4641688   0.5953123   1.0508636  -1.0099987   0.2298056  -0.6645785
  -0.0639141  -0.0330314  -0.0195744   0.5895674  -0.0935907   0.8729723
  -0.6540724   0.5479601   0.5728665  -0.1854263   0.0461421   0.1285482
  -0.8888924  -0.7500196   0.0397034  -0.1634395   0.2239236  -1.2448210
   0.0696720   0.0646667   0.0783749   0.1904953  -0.9519615  -0.3697067
   1.9645441  -0.1998741   0.1072564   0.2769918   0.2339889  -0.1836099
   0.4917910   0.3219041  -0.2397026  -0.3713657  -0.1773491  -0.7261672
  -0.0910755   0.0022006   0.1489533   0.7862214   0.2726009  -0.4651353
   0.1369428  -0.4507091  -1.4071160   0.0423678   0.2095767  -0.1033553
  -0.2809893  -0.2306863   0.5083078   0.0300615  -0.1596633  -0.6295318
   0.0206755  -0.2443097   0.0952126   0.0410160   0.2272953  -0.0254707
  -0.5574053   0.0750461   0.1860866   0.0425985  -0.1357905   0.1741980
  -0.1377283  -1.0871535  -0.7050879   0.3134823   0.0925026   0.0378237
  -0.1409645   0.0284535  -0.0966162  -1.4719473   0.0103112  -0.4699700
  -0.0810484  -0.2728786  -0.1085817  -0.1373861   0.1160194  -0.0484831
  -0.3788755  -0.4450299   0.3327665  -0.2014542   0.5191775   0.0739073
   0.1801725  -0.1426592   0.2225651   0.1133125   1.3174468  -1.0925288
   0.6728507  -0.5089306   1.2008174  -0.0930006   0.0758559   0.1038043
  -0.8984075   0.6114261  -0.2832726  -0.6249395   1.3396184  -0.1844208
   0.1554489  -0.2605857  -0.3618709  -0.5446317  -0.6953458  -0.2221360
  -0.6191479  -0.1439922  -0.5688096  -0.1526902  -0.3587749   0.0716645
   0.4101573  -0.9700733   0.2982396  -0.2981656  -1.3612591   0.5678986
   0.1167322   0.0031862   0.2158975  -0.6301852   1.3411069   0.3122770
  -0.2355367  -0.5237333  -1.1832086   0.5809180   0.2452024  -0.0153574
   1.3121567   0.7562753   0.1892807   0.8016999  -0.5639693   0.2361967
   0.0537857   0.0833689  -0.3214071   0.4820155   0.1190054  -0.6579966
  -0.2305772   0.7358627  -0.0534035  -0.0681230  -0.1690753   0.1040022
  -0.2280584   0.1933902   0.0447551   0.2713069   1.5340155  -0.5820566
  -0.0981723   0.0399929   0.1415794  -0.1938173   0.0998162   0.2171986
  -0.0861596  -0.0065767   0.2575210   0.0051012  -0.0892088  -0.0652341
   0.2048209   0.0865705   0.1186723   0.2340199   0.0914497  -0.3169722
   0.1933921  -0.0511852   0.0858041   0.0208319   0.2409000  -0.1441381
   0.2751894   0.1941974  -0.0973901   0.0448667   0.3172066  -0.1358716
   0.2884570   0.8782016  -0.3003416  -0.0595335   1.9663378  -0.2974906
   0.0265814  -0.0743600   0.1691742  -0.1623514   0.4621585   0.1798761
   0.8172485  -0.2982783   0.5675662   0.2394165   0.2358757   0.1433982
   0.0246618   0.5632756  -0.4531178   0.2304422  -0.1267376  -1.2677795
  -0.1557069   0.1508362   0.1580212   0.5630105  -0.2888970   1.2400152
   0.4962846   0.9468781  -0.7182673  -0.1162580   0.2238381  -0.2867680
  -0.1240852  -0.9671615   0.1078530  -0.1704566  -1.1130226  -0.1105448
   0.0257817  -0.1952683  -0.0339214   0.7170038   0.4918292  -0.4637804
   0.6823630  -1.0848225   0.1777995   0.4725443  -0.0355999  -0.1381695
   1.2628388  -0.2893528  -0.3414468  -0.9847715   0.0955981  -0.6786356
   0.1213296  -0.2161288  -0.0897988  -0.0968484   0.0117363   0.3362045
   0.0600493  -0.2302449  -0.2784967   0.2227549   0.3537461  -0.1409483
  -0.0247182   0.4413042   0.0196237   0.1547974   0.4578974  -0.2239653
  -0.2156461  -0.0803079  -0.1716161  -0.3831638   0.1772971  -1.0096705
  -0.4825003   0.3146170   0.3182903  -0.2277210  -0.0056830  -0.0574897
  -0.5154548   0.2879174   0.5141467   0.6734961  -1.4040209   0.3561470
   0.3414055   0.5762397  -0.1702675  -0.3205312  -0.6500475   1.0303440
  -0.1578220   1.8351102  -0.3861737  -0.1851337   0.0347692  -0.0479190
   0.0273879  -0.3918923  -0.6934573  -0.2098442  -0.5294806   0.3835177
  -0.2576692  -0.0720199   0.2275262  -0.5719170  -0.5570916   0.4674210
   0.1892238  -0.1289668   0.3834135  -0.0510920   0.2549691   0.1435966
  -0.0904099  -0.5422819   0.6515574   0.5363616   1.0400264   0.4786054
   0.1556509  -0.3558104  -0.0201771  -0.0146513   0.3242107   0.7617012
   0.1789416  -0.1464918   0.1254514   0.0951853  -0.0835279   0.3861296
   0.6339267   0.3119768   0.6534596   0.0900985  -0.1951782   0.6744198
  -0.2509043   0.0701119   0.0288588  -0.1146172   0.7333684   0.3840692
   0.6812640  -1.1263835  -0.4953586  -0.1135231   0.2186358  -0.0457737
   2.0716844  -1.2014968  -0.1683924   0.5248192  -0.3469912   0.2836413
   0.1206481  -0.1248470   0.1854517   0.5088835  -0.8599956   0.8371758
  -0.2014667   0.2066904   0.1451724   0.1894543  -0.0942335  -0.3305321
  -0.4870184  -0.2718503   1.2226370   0.4578989  -0.6551573  -0.2948506
   0.0357527   0.1804021  -0.0945477  -0.0230882   0.3237355   0.1947733
  -0.3018773   0.6321836   1.3198437  -0.1081125   0.0163264  -0.2189626
  -0.2344934   0.1039351  -0.3852392   0.2092303  -0.2923390  -0.5419279
  -0.1943397   0.2735251  -0.0458214  -0.9027539   0.3080217  -0.1160729
  -0.2332768   1.3373258  -0.4628045  -0.0143366   0.1629592   0.0522897
  -0.1821097   0.4155919   0.0045022   0.2132111   0.2558536   0.2424049
   0.1934759   0.0164480  -0.1449913  -0.2236079   0.0586788  -0.0556525
   0.3096555  -0.7135294   0.1810100  -0.0889914   0.1772873  -0.0094759
  -0.2755541   0.3587599   0.3758977  -0.0459675  -0.6065892   0.5931468
   0.0432548  -0.1484470  -0.0527930   0.2275009  -0.5138830  -0.2757757
  -0.3593109  -0.0495695  -0.3657210  -0.0223484  -0.0852494   0.0913192
   0.2207332  -0.0032084  -0.0829983  -0.7029896  -0.0044737   0.5312423
  -0.1484911  -0.1017832  -0.0982973  -0.2622307   0.0013558   0.0919732
  -0.0696663   0.7137067   0.0851434  -0.3210190  -0.1736513  -0.3257028
  -0.6801548   0.4066754  -0.5081821  -0.4619851   0.7379736  -0.4399034
   0.0059197  -0.3640120  -0.0062934  -0.8172434  -0.1212528   0.6922526
   1.1775110  -1.0314823   0.2113894  -0.0410933   0.1457601  -0.1460179
  -0.4129530   0.0301405   0.1493830  -0.4683427   0.1032445  -0.8276445
  -0.0785458  -0.2150620  -0.2654022  -0.1393029   0.9951225  -1.1589963
   0.0498289  -1.2271396  -1.3850469  -0.1298713  -0.0542376   0.2319476
   0.0397056  -0.1992312   0.0491681   0.1785984  -0.4736573  -0.3617784
  -0.0709168   0.2300106   0.0613854   0.5359522  -0.4981951   0.3684930
   0.6871436   0.4659297   0.2167870  -0.1010346   0.0473651   0.1216067
   0.0515868   0.1928381  -0.4424712  -0.8590665  -0.2434505  -0.6044974
   0.0237598  -0.0705548  -0.5550123  -0.2538419  -1.0007855  -0.5575681
  -0.2295954   0.1227542   0.0257833   0.0866347  -0.0629165   0.0667878
  -0.2939265  -0.0398353   0.0318868   0.2247553  -0.2571595   0.3404569
   0.0420729  -0.0400452   0.1710786   0.0154770   0.4905230  -0.4638800
  -0.0872427  -0.3997380   0.2957436  -0.1307351   0.1459586  -0.3238077
  -0.2568870  -0.2890591  -2.0558679  -0.4043579  -0.1025697  -0.8039462
  -0.0170675   0.0932585  -0.1665843   0.1026268  -0.3211757   0.1633398
  -0.0510093  -0.0463915   0.0238792   0.0777064  -0.1611386   0.2221078
   0.0932876   0.1424538   0.8864082   0.1204482  -1.0586915  -0.7945635
  -0.2329094   0.1514822   0.0493605  -0.0158417   0.5164248  -0.2830633
  -0.4878648   0.4789628  -0.1925999  -0.0825192  -0.0637031  -0.0993751
   0.3503925   0.0764018  -0.5246044   0.6334378   0.0601591  -0.6378375
  -0.2958911   0.0005226   0.2527553  -0.1178307   0.5286258  -0.7686453
  -0.8582405   0.5396512   0.9417903  -0.0938865  -0.2022175  -0.3172018
  -0.0965422  -0.0478171  -0.4016510  -0.0954190  -0.2053948  -0.2972552
  -0.2807665   0.0492591   0.1479876  -0.2801770  -0.5572350  -0.4105956
   0.1161283   0.1750133  -0.3670081  -0.3202120  -0.1711743  -0.2244663
   0.6378622   0.1762686  -0.5443982  -0.2790871   0.5929175  -0.2506964
   0.1088440   0.1633176   0.2373087  -0.0359796   0.1058895   0.3232084
   0.8020506   0.2703192   0.5719794   0.0784304   0.1530454  -0.0622355
   0.6017046   0.7108488  -0.8718523  -0.0967080   0.5784558  -0.2989151
  -0.0149757  -0.1940653  -0.1242666   0.7156982  -0.6028610   0.0023252
  -0.3989448  -0.2420646   0.2485806  -0.0657646  -0.0205220   0.0573686
   1.2400561   1.2237495   1.5329177  -0.2870228  -0.5275885   0.3865745
   0.4032959  -0.0237661  -0.0104958  -0.5509761   0.2495492   0.2895309
   0.8800678   1.3257420   0.2727438   0.4593655   0.2657931   0.1466573
   1.6084436   0.5798824   0.6261165  -0.9404323  -0.2741768   0.3355485
  -0.2557371   0.0704676   0.1187338   0.6807557   0.8413538  -0.6879613
   0.8228750  -1.2445887   0.5851945   0.0186743   0.3565640   0.0291535
  -0.0341047  -0.1280655   0.7716301   0.1680944  -0.5196887   0.6498919
   0.0070203  -0.2403622   0.0565000  -0.7087097  -0.5349025   0.8913869
   0.1149103  -1.2732148  -0.4949934  -0.0336088  -0.0846168  -0.0617530
  -0.4022510  -0.1472069  -0.4773680   0.2166190  -0.0017423   0.4818187
  -0.0074536  -0.3908050  -0.1361940   0.4106178   0.2622211   0.5999938
  -0.2342224  -1.1560054   0.1472777  -0.1542252  -0.2197829   0.0843607
   0.4823965   0.3330000   0.9486191   0.6325948   0.2765027   0.2201454
  -0.0327058  -0.4551025   0.0629415  -0.8703026   0.3726417   0.4407506
  -0.2290603  -0.8015101  -0.4960698   0.4138693   0.0943367   0.1904787
   0.8628239  -0.1515717   0.4099580  -0.7444374   0.2089855  -0.0077190
  -0.2123835  -0.2295146   0.1666228   0.1355388   1.0765467   0.9663136
   0.2391543  -1.5424819   1.3138485  -0.0012312   0.0633227  -0.1115523
  -0.2016076  -0.0050641   0.0012566   0.1471903   0.1243081  -0.2635106
  -0.3445774  -0.2911381   0.1045528   0.1039057   0.3082187  -0.1154760
  -0.1536613  -0.2133920  -0.0273369   0.2453268  -0.2032462   0.0669228
  -0.5776355   0.5001572  -1.3574333   0.2358805   0.7624623  -0.1251358
   0.0413257   0.1925305   0.1192444   0.1055292   0.1222590   0.3881304
  -1.5024008   0.4168687  -0.3832955   0.1695750  -0.0149932   0.2037092
   0.6488307  -0.2455926   0.2066492   0.0575549   0.3261592   0.2190521
   0.0005582  -0.0052851   0.1836467  -0.1612972  -0.6523073   0.1129964
   0.0842640   0.5615371   0.5499625  -0.2826029  -0.1691262  -0.2183845
  -0.3189498  -1.1014535   0.4054255   0.2450154  -0.1980017   1.0517726
   0.1295971   0.1524209  -0.2622987   0.4215771   0.8501622   0.8432035
  -1.4592504  -0.7633684  -1.3263214   0.0598294  -0.3182389  -0.0258098
   0.8363711   0.0574510   0.0279950   0.2716938  -0.7848177   0.4766814
  -0.0223413   0.1692960  -0.2429299   0.1131469  -0.0553531  -0.2717571
   0.0278899  -0.0815960  -0.2617100  -0.4134496   0.0057443  -0.0025624
   0.6756886   0.0268815   0.5424837  -0.9047807   0.7454384  -0.6369503
  -0.3192222   0.1285333  -0.0303650  -0.3291314  -0.0676750  -0.8295423
   0.7869698  -0.5598593  -0.0398545   0.2578736  -0.1993339   0.3171106
   0.1936639  -0.6969759  -0.0236295   0.2575014  -0.1412664   0.2289845
  -0.1383385  -0.0308691   0.1097221  -0.4720469   0.2187420   0.3193148
   0.7009681  -1.0139132  -1.0343239   0.2709710   0.0943087  -0.3489146
   0.8108013   0.1560657   0.2600161   1.0746395   0.5431377  -0.5434594
   0.1003628   0.2103728   0.4183437   0.3099091  -1.0786114  -0.3840981
  -1.2555155   0.6200891  -0.3347893   0.3038019   0.0517901  -0.0059910
   0.4186654   1.4094486  -0.5056331   0.3261295  -0.2018127   0.1704224
  -0.0581598   0.1496364   0.1126606  -0.0605682  -0.1668914   0.6106866
   0.4548408  -0.3311116   0.6600057   0.5242031  -0.4178988  -0.0826694
  -0.4631249   1.2023300  -1.0777259   0.6088239  -0.5248421  -0.0687023
  -0.2082150  -0.1919467   0.2600286  -0.1435868  -0.2870861   0.4222444
  -0.0560406  -0.2798798   0.1953406  -0.1487914   0.3120968  -0.0222591
   0.2646877   0.2946281   0.6324711  -0.0470676   0.2885394   0.0669108
   0.1145186  -0.0994041   0.0452788   0.2049316   0.1333337  -0.0079412
   0.7304359   1.2016698  -0.4075136  -0.1910433   0.2565896   0.1947974
   0.3793301   0.3840028   0.3449207  -0.1932875   0.1944887   0.3159828
   0.0931514  -0.3633899  -0.0481204  -0.3524384   1.5470932   0.1543161
   0.7553284  -0.9228494  -0.0259177   0.0745135  -0.0823488  -0.1170892
   1.1055934  -0.3972596  -0.5688830   0.8436413   0.9467023   0.0291562
   0.0215948  -0.1332241   0.0627064   0.0023673  -0.3060835   0.1708001
  -0.0426916  -0.1648887   0.1788355   0.0683465  -0.0769397   0.1000889
  -0.2260355  -0.0717497   0.1926165   0.0394530   0.0426868   0.0143631
   0.1108283   0.0862753   0.1047040   0.1276415   0.1169317   0.2059705
  -0.0516817   0.2945838  -0.5434082   0.0833681  -0.0713818  -0.3499791
   0.0362223  -0.1133869  -0.2951701  -0.9563487  -0.9544957   0.7896684
  -0.0492328  -0.1725751  -0.0181419  -0.0133014   0.4014988   0.7328466
  -0.8439151  -0.5402617  -0.3090393   0.0801196   0.1728142  -0.0531903
   0.2200188  -0.7886688  -0.0617576  -0.9275429   0.6925366  -0.3358671
  -0.0803691   0.1039651  -0.1112515  -0.0957551   0.0249866   0.4836011
  -1.3401450  -0.4572878  -0.4366821  -0.1365899  -0.0738451  -0.2693373
   0.3898247  -0.6494871  -0.4883725   0.5228735   0.0208698  -0.5097056
  -0.2418573  -0.1557484  -0.2399446   0.5727072   0.3039656   0.0412587
  -0.0867312  -0.7484365  -0.3443102  -0.4539502   0.2392598  -0.1149911
  -0.4014439   0.6535555  -0.4578480  -0.4805175   0.1320874   0.3364920
  -0.1353631  -0.2188201  -0.0878585  -0.6307286  -0.4630444   0.9772105
   0.9588939  -0.9118935  -0.0344886  -0.1825350  -0.2015980   0.3100778
  -0.5286614  -1.5287999  -0.1257475   0.7241925   1.3565576  -0.7510464
   0.0559918  -0.0075173  -0.1491015   0.0827058  -0.0338900  -0.6734822
   0.0846464   0.0176097  -0.3988805   0.0301636  -0.0057470  -0.1206591
   0.0156300  -0.0869886  -0.6853718   0.1139492  -0.8750046   0.5432481
  -0.1272172   0.2135487   0.0343421  -0.2430418  -0.0705440   0.2368284
  -0.3880771  -0.2843922   0.2060425  -0.4084601   0.0233014  -0.1491690
  -0.2249573  -0.3612276  -0.2310939  -0.1329977   0.2977988  -0.6280303
  -0.1344567   0.2221047  -0.1245873   1.2375349  -1.0570474   1.2049254
   0.0224715   1.0048583  -0.4311315  -0.0012138   0.0791891   0.2394266
   0.0255879  -0.0173879   0.0832996   0.9963836  -0.2335690   0.5544458
   0.1531078   0.0555194  -0.2247022   0.8775439   0.4992775   0.4054629
   0.9501511   0.0204705  -0.7619109  -0.1866041   0.2043707   0.1614022
  -0.8353966  -0.7385836   0.2838836   0.0934275   0.7280097  -0.0170172
  -0.0545268   0.1946746   0.1727577  -0.6141963   0.7089076   0.1070505
  -0.2056179   0.2566749   0.3110840   0.0142607   0.0792209  -0.2594074
   0.2094878  -0.3826362  -0.8392154   0.5270840  -0.1238986   0.2902655
  -0.1090868  -0.2924968   0.0970113   0.0018213  -0.1637480   0.1671059
  -0.0594429   0.5571934  -0.3037558   0.0836254   0.2670602   0.1220180
  -0.1385835   0.2821171  -0.2275029  -1.2029414  -0.7480589  -0.0499724
  -0.1268800  -0.1661975   0.0878401  -0.2022691   0.1664186  -0.0381287
  -0.0308388  -0.3765409   0.2148648   0.0131504  -0.1069212  -0.0674668
  -0.4839564   0.6320150   0.4277485  -0.6615093  -0.1665488  -0.1647567
   0.1304697  -0.2937331  -0.0068693  -0.1378900  -0.4908950  -0.0042377
   0.7677467  -1.3368756  -0.6578211   0.0834153   0.0975315   0.1941461
   0.8925438   0.2771040   0.2282421   1.5631771   0.8727007   0.4154895
  -0.0602625  -0.1089674   0.1444677  -0.0613430   0.3624982  -0.2462118
   0.4288024  -0.0932380   0.1356432   0.2076135   0.0849173  -0.0608371
  -0.8801819  -0.8865098   0.4851398   1.3133160   0.4518322   0.6738961
   0.4786914   0.3119422  -0.0195706   0.5339837   0.3446816  -0.7501771
  -0.2216765  -0.0495724   0.0538197   0.1315112  -0.0417502   0.3066498
   0.5654723  -0.1032151   0.3519476   0.6072521  -0.7466212   1.0142014
   0.0935695   0.0778775   0.0227184   1.0135783  -0.1479420   0.1284666
  -0.0205298   0.2763720  -0.4554283   0.1181226   0.3060215   0.1621174
   0.0713432   0.2643597   0.1401418   0.0481018   0.3205242   0.1705523
   0.3968824   0.0591287   0.2777916   0.8577951  -0.4077989   0.4496206
  -0.2078630  -0.3151611   1.1046944   0.0893521  -0.0609740   0.1779976
   0.8854330  -0.2399429   0.2194207  -0.7847512  -0.1877557   0.0788687
  -0.2294992  -0.0011731  -0.1119185  -0.3142936   0.0719800  -0.1021689
  -0.0980570  -0.4263739  -0.8321983  -0.2432352   0.1352741  -0.2395003
   0.2668547  -0.0108675  -0.6083369   0.2747239  -1.2943804  -0.2788856
  -0.0780002   0.0619485  -0.1294548  -0.0982793  -0.6608475   0.0739111
  -0.3355437   0.0880495   0.1238050   0.4381536   0.0793004  -0.0644885
   1.0333003  -0.4899405   0.5969797   0.0660209   0.0734663   0.0198985
  -0.1827188   0.2142885  -0.1512021   0.3128473  -0.4098440  -0.4288064
  -0.5130258  -0.3614994   0.1769080   0.3177171   0.1040057   0.1815906
   0.3636445  -0.5171219   0.0643358   0.0688987   1.4455741   0.5701306
  -0.0125069   0.0021138   0.1330609   0.2895738  -0.0081532   0.4512202
   0.7192650   0.3362451   0.5820923   0.0498746  -0.0666014  -0.2982583
  -0.4820377   0.2347278  -0.9448715  -0.2225468   0.1762036  -0.2358581
   0.0963655   0.1893939   0.0812873   0.5958486   0.7220783  -0.9229327
   0.4684397  -0.7194787  -0.1877644  -0.2526423   0.1083835   0.0968269
  -0.7863864   0.4105563   0.0689718  -0.1607818  -2.1076570  -0.3771491
  -0.0264542   0.4424813  -0.0207982  -0.4664491  -0.1185826  -0.3287109
  -0.3842045   0.6949350   0.6415420  -0.5279964  -0.0470515   0.1008657
  -0.1719718  -0.0889972   0.4599974  -0.1390565   0.2126573  -0.0887297
   0.1162599  -0.0542160   0.0237851  -0.0529162  -0.4343358   0.0148105
   0.3867966   0.0860128  -0.4207473  -0.4315154   0.1108015   0.1080636
  -0.0688727   0.1907735   0.0571263  -0.5304450  -0.1615370  -0.1702590
  -0.0034088   0.1463445   0.3054103  -0.6403297  -0.1198952  -0.2226596
   0.5312752   0.2175560  -0.0680059  -0.1088578   0.0380669   0.0176191
   0.2443306  -0.5554782  -0.1624146   0.0809557   0.1293656  -0.8787984
   0.0263791  -0.1821881   0.1145879  -0.0452952   1.5440373   0.4397896
  -0.0028029  -0.2879726   0.1714531   0.2763270   0.1635470  -0.0426827
   0.2448522   0.7075781  -0.0089276   0.1190702   0.0563870  -0.5601996
   0.0272230   0.7071616   0.0589930  -0.0388769   0.7913141   0.0115934
  -1.7670857  -0.0613191   0.0851457   0.3419851  -0.0619710  -0.1493836
  -0.3045536  -0.2338728  -0.6278294   0.1383509   0.6556683   0.2256961
   0.0111283  -0.0576742  -0.1958762   0.9521772  -0.4486953   0.1836856
  -0.7517707  -0.7322172   0.1798183   0.0813947  -0.0211008  -0.1821166
   0.3168312  -1.1464388  -0.3955274   0.7443879   0.5165599   0.6052913
   0.1328072  -0.2412960  -0.1254545  -0.3067448  -0.1924038   0.3995740
   0.6110418  -0.1079975   0.0923168  -0.1440184  -0.1386256   0.0920525
   0.0464570   0.7299047   0.3266996  -0.2736407   0.6998213   0.0571075
   0.1385366   0.1049018  -0.1505665  -0.1259561  -0.1981999   0.9928229
   1.7279547   0.0542435  -0.6907498   0.0320715  -0.0266603   0.3156159
  -0.1778930   0.2529285   0.2374603   0.1157168   0.1152966   0.7346344
   0.0187756   0.4383532  -0.0127347   0.9800518   0.1386084  -0.6266270
  -0.0739053   0.6974256  -0.2073879   0.3021269   0.1565967  -0.0716180
   0.8971101   0.0284153  -0.5041371  -0.6801697  -0.3703441   0.0257407
  -0.1913656  -0.2268863   0.0646403  -0.2351836  -0.2628312   0.5348427
  -0.8198470  -0.5531123   0.6937760  -0.0322901  -0.1587387  -0.1114904
   0.1898033  -0.0643799   0.9353494   0.0998835   0.1681938  -0.8800389
  -0.1561773  -0.1376644   0.1856999  -0.2622302  -0.8522723   0.2343882
  -0.2858966  -0.7365268  -0.2545718  -0.2065530   0.0968016  -0.1253360
   0.2461177  -1.7381670  -0.3945093  -0.6532429  -0.0048065  -0.7508260
   0.1663357  -0.3194212   0.1005516  -0.0396355  -0.0007933   0.5405108
   0.1504451  -0.3566478   0.5649747   0.6739796   0.0824461  -0.1972481
  -0.1572599  -0.5094267  -0.1567179   1.4673651   0.6359734  -0.0922165
  -0.1591093   0.0040721  -0.0710826   0.0694571   0.1731095   0.2403870
  -0.3487035  -0.1311951  -0.0970356   0.3793348   0.3626628   0.0679780
  -0.6042849   1.1203906  -0.1169905  -0.0670269   0.7252875   0.0082914
  -0.0625915  -0.0254405   0.0981060  -0.1098396  -0.2082613   0.2553024
  -0.1337141   0.2191014   0.2977692   0.3237064  -0.1899493  -0.0831909
  -0.6385416  -0.5651442   0.0355728  -0.1940111   0.5559880  -0.1340077
   0.4055964   0.0933115   0.0101224   0.2264242  -0.7618699   0.5776189
  -0.7911767   0.6292716   0.8477194   0.2036217   0.2201037  -0.1408494
  -0.9765010   0.0806289  -0.1856686   0.2667816  -0.4416234   0.4906816
  -0.2182705   0.2384008  -0.2748052  -0.4459539   0.4876286  -0.1819935
   0.0863839  -0.3945519  -0.9408070  -0.0935861   0.3024613   0.0400893
   0.4831127  -0.0497603   0.5180101  -0.2372253   0.4795590  -0.3188853
  -0.0339946   0.1383589  -0.0320112   0.0563966  -0.6288156  -0.1313614
  -0.4651494   0.6832626  -0.2157762  -0.0800913   0.2433318   0.3111802
  -0.0088453  -0.4046086   0.4152044   0.5257607  -0.3446693  -0.6182164
   0.1718460  -0.4686804   0.3830144  -0.4358855  -0.4699333  -0.4109403
   0.0799740   0.1499396   1.0940941  -0.1622270   0.0782713  -0.1519571
   0.4537045  -0.6774067  -0.4400617   0.2598265  -0.7525805  -0.7664643
  -0.0507949  -0.3051480   0.3911909  -0.0117540  -0.0684255   0.0393623
   0.0477132   0.6089834  -0.9321493   0.0637751   0.0213965  -0.2755093
  -0.2368874   0.6463691  -0.0663434  -0.1975573  -0.0870119  -0.6790132
   0.0196425  -0.0221141   0.0571635  -1.4490028  -0.4886716   0.0771147
   0.0029859  -0.7717135  -0.0035550  -0.3191336  -0.1239660  -0.1381572
  -0.0313313   0.6033864  -0.1436736  -0.3310125   0.2118244  -0.1488377
   0.0467713  -0.0286174  -0.1289665   1.7138306   0.4238063  -1.4743175
  -1.6710517   1.0566439  -0.4734007   0.3262626   0.2211679   0.3906685
   0.2464810   0.6718244  -0.0613071  -0.2706535  -1.4085897   0.3988310
  -0.1885561   0.0388169   0.1915052  -0.1846583   0.3800056   0.3923534
  -0.3751919   0.2257341   0.2102468   0.2097098  -0.1622342   0.4275697
   0.2428944   0.1742732  -0.1165178  -0.1282588   0.2465927  -0.1498439
  -0.0914277  -0.0395441   0.0597459   0.1123496  -0.2833803  -0.2405475
   0.4044883   0.5517438   0.1302837  -0.2469033   0.1316614   0.1191777
  -0.0710188  -0.0311740  -0.9143851  -0.1626588   0.4970732   1.4212865
  -0.1418849  -0.1200101  -0.0998981  -0.8420390  -0.4094162  -0.3320571
  -0.4294432  -1.5453251  -0.5345990   0.1035482   0.2886206   0.3238684
   0.6251356   0.1434365   0.3029434  -0.1647599  -0.0815360   0.7504185
  -0.0810426   0.0183314   0.2542197  -0.0887508   0.1623344   0.4708240
  -0.1422704  -0.0242916   0.2527486  -0.0833023   0.2539277  -0.3044764
  -0.5840373  -0.1745816  -0.7329510  -0.2183928   1.1447045   1.3850218
  -0.0679257   0.0511897   0.2352025   0.0606306   1.0888665   1.2120411
   0.9686897   0.4673532  -0.6689447   0.1517256   0.2259574  -0.0895802
   0.2027229  -0.4504041  -0.5699732   0.4011526   0.7437833  -0.3685648
  -0.1018097  -0.1099644   0.2779816   1.1354020   0.1722993   0.7581118
   0.8720370  -0.0264034   0.5634938  -0.1107270  -0.2826730   0.0713064
   0.6610187  -0.8543839  -0.5304483   0.4744594   0.9543096   0.1005252
  -0.0780179   0.0774613  -0.0913618  -0.2583433  -0.1636209  -0.2604173
  -0.0196792   0.1667035  -0.4418944  -0.2038087   0.2670801   0.1437410
   0.0890025   0.2352997   0.3105684  -0.3335132  -0.0300480   0.1826658
   0.0601514  -0.0026439   0.5791198   0.6725258  -0.7000016   0.5096701
   0.7460771  -0.0734709  -0.1150765   0.3457034  -0.2926848  -0.3048023
   0.6769171   0.0290520  -0.6134326  -0.3873023   0.2712803  -0.4610281
  -0.0747770   0.1660802   0.0658715  -0.1912534  -0.1880758  -0.1716860
  -0.6089429  -0.4299878   0.4983024   0.2980255   0.0132035  -0.1207297
   0.6750418   0.2150042   0.1384569  -1.7373726  -1.1040804   0.1126947
  -0.2963984   0.1764135   0.1059393   0.1329829  -0.1944417   0.6654917
  -0.2153562   0.1676198  -0.9327726   0.1837420   0.1065180  -0.3512411
   0.9075536   0.4046514  -0.3908840  -0.5533248  -0.5401159  -0.9611668
   0.1597969   0.0268039   0.0960231   0.3798406   1.2627324   0.0724836
   0.1068709  -0.0148102   0.0868996  -0.0992219  -0.0762257  -0.0046688
   0.2149075  -0.3276796   0.6417776   0.3073733  -0.4316684   0.9238884
   0.0793036  -0.2649882  -0.1760036   0.1289572   0.5079688  -0.8194007
   0.2338470  -1.3037671  -0.3777869   0.1580840  -0.1899412   0.0206229
   0.1553936   0.4540540   0.9846368   0.0689756  -0.3875711   0.0063209
  -0.0434079   0.0229105  -0.1120423   0.8893791   0.0901953  -0.4614308
  -0.3041722  -0.1923685  -0.9357587   0.1396628   0.2900530  -0.0561033
   0.1060993   0.6759905   0.0436928  -0.2016443  -1.5433458  -0.3418316
  -0.2782873  -0.1880897  -0.1309754   0.5902940   0.3401472   0.1465302
   0.1119007  -0.9857040  -0.7627502  -0.0030452  -0.2571744   0.2833317
   0.0205688  -0.3636620   0.3905943   0.0906923  -0.2800847   0.0851679
  -0.0124414  -0.1174669  -0.1903063  -0.2202007   0.3654353  -0.0464198
  -0.0461197  -0.2373853  -0.8856571   0.0159804  -0.3178217   0.0711330
  -0.2090062   0.8002678  -0.2566828  -0.6116233  -0.6318221   0.1409825
   0.1474023  -0.1103551  -0.0611988   0.7126126   0.2008370   0.1420714
   0.3025029   0.0168088   0.3785582  -0.1297656   0.1568344  -0.0340599
  -0.4860294   0.8422299  -0.0059088   0.3339300   0.2258123  -0.7410759
  -0.0903122   0.0300924  -0.2355170  -0.5955274  -0.5814574  -0.7406982
   0.1870752   0.1960692   0.4849814  -0.0625303   0.1342667  -0.0495991
   0.8029221   0.0620671   1.3162621   0.7857282  -0.0499403  -0.9079529
   0.1680560  -0.2489684   0.1470826  -0.9670299  -0.5027848  -0.0684480
   0.3327950   0.4716514  -1.2331268  -0.0413204  -0.3740577   0.1909100
  -1.1178297  -0.4923197   0.2258642  -0.3187750   0.7389794  -0.4708559
   0.0006757   0.0773685  -0.0895558   0.5940203   0.6115880   0.0713333
  -0.8073196   0.1414191   0.3053156  -0.0821229  -0.2108016   0.2180779
   0.6079760   0.0149414  -0.3098667   0.3621161   0.3865210  -0.1027508
  -0.0912562   0.2307477   0.0145083   0.2510401   1.0441763  -0.6289621
  -0.6320810  -0.4951062  -0.6830707   0.1064446   0.0036833   0.2586951
   0.9931271   0.4080634  -0.1978211  -0.6861167  -0.1080737  -0.4455723
  -0.0612668  -0.0759736  -0.1342141   0.7436061   0.6810665   0.4164046
   0.2715784  -0.1364715  -0.1934072  -0.0149232   0.1520984  -0.1130708
  -0.2913634   0.3722718   0.0672247   0.0255136   0.3383601   0.1630639
   0.0233646  -0.0908652   0.0409162   0.2897994   0.0835953   0.2245478
   0.5767709   0.4734516   0.6558894  -0.2383190   0.0288823   0.4002077
  -0.2704678  -0.2177591   0.7822980  -0.0138338  -0.7922814   0.4881659
  -0.0384351   0.1254500   0.2584105   0.6349210  -1.1549931  -1.2058444
  -0.1501181   0.2086497   0.5370566  -0.1487051   0.0473681  -0.0823512
   0.0456282  -0.6449978  -0.1203587  -0.5875569   1.2021347   0.0725711
   0.0905164  -0.0807079  -0.0359694  -0.3445603  -0.6059187  -0.1969510
   0.8332008   0.6541296  -0.0340616   0.1546322   0.1431856   0.1435487
  -0.4357501  -0.3162130  -0.2026777   0.0456911   0.2579988   0.2094900
   0.0483558   0.0502872  -0.0745855  -0.0501997   0.2703114  -0.4953721
   0.3316879   0.6997649  -0.7212529   0.1013340  -0.1428856  -0.2475586
  -0.4198661  -0.7875439  -0.6930670  -0.0077395   1.0981231  -0.6343285
  -0.0214777  -0.0684594   0.0864705   0.1693607   1.0257072  -0.6289939
   0.3707104  -0.4902484   0.1484070  -0.0156113  -0.0980901  -0.0528694
   0.1384128   0.7125815   0.4358244  -0.6111937  -0.5544296  -0.4402651
  -0.1734249  -0.1065100   0.1873724   0.0119089  -0.4506954   0.2053901
  -0.7639058  -0.2187168   0.1252653  -0.3238970   0.3161359   0.2152178
  -0.9679839  -0.3501598  -0.1338239  -0.7582641  -0.1709336  -0.0717226
  -0.0180565   0.1509424  -0.2184411  -0.3186383   0.3495435  -1.2665751
   1.2628371  -0.6797899   0.3741000   0.2577518   0.1649208   0.1265967
   0.6476886   0.7218221   0.4847942  -0.4264652   0.0956975   0.9000706
  -0.1182519   0.0566873   0.5588605   0.5681661   0.0112501  -0.2080200
  -1.2061623   0.8387460   1.0022012  -0.3217024   0.1125605  -0.2465335
  -0.0286183  -0.6072964  -1.2350052   0.6280728   0.6147474   0.3449005
  -0.2340129  -0.1943681  -0.6548059  -0.5463211  -0.6837562  -0.2019286
   0.1676301  -0.1053996  -0.4882014   0.1159228   0.1188706  -0.3814635
  -0.0671271  -0.3141380  -0.2473539  -0.0735076   0.4962401  -0.3431555
   0.4204159   0.0491013   0.0261005  -0.2138439   0.2768785  -0.6226170
   0.4680586  -0.2448874  -0.3962343  -0.1301289   0.3373593   0.0966575
  -0.0028529   0.3960674  -0.8672537  -0.1506798  -0.3971072   0.3773347
   0.0971072   0.2823113   0.0459619  -0.1897460  -0.6476587  -0.2910277
   0.1423397   0.1182491   0.0070344   0.0674184  -0.2471566  -0.3427088
  -0.0797981  -0.0893069  -0.2139026   0.1628838   0.0754186  -0.4582117
  -0.1771088   0.4307307   0.1959520  -0.1260949  -0.3211648  -0.5021590
  -1.1112185   0.1959062   0.7817430   0.1091951  -0.0374837   0.2039548
   0.0795180   0.1620525   0.4891793  -0.0325334   0.2960693  -0.2148960
   0.4449557  -0.0857000   0.4267603   0.2832740  -0.0665959  -0.3166647
   0.2173735  -0.1773099   0.0818842  -0.1603197   0.4158785   0.4067015
  -0.6217811  -0.6764998  -0.5480666   0.3826026   1.0081875   1.1601011
   0.0603608  -0.2143025   0.0363108  -0.6828994  -0.3999675  -0.5587958
  -1.1165409  -0.7588817  -0.0875283   0.1668242  -0.3685781  -0.1299370
   0.4591217  -0.2816665   0.3399508   0.9741806   0.8064092  -0.7046670
  -0.1183741   0.2749388  -0.0784914   0.3571981   0.3277901  -0.0819838
  -0.4570595   0.0319326  -0.2840279   0.1679155  -0.1983579  -0.0449557
  -0.0397109   0.1586529   0.2938251  -0.0779741   0.0075104  -0.2138706
   0.1736409  -0.0286485  -0.2400052   0.6244189  -0.4573821  -0.2040867
   1.1086734  -0.7461786  -0.1408774   0.1728568   0.0032393   0.0337574
  -0.1504523   0.0744160   1.0029184   0.9344170  -0.0926968  -0.3455425
  -0.1125026  -0.1527441  -0.1313080   0.3456497  -0.3449918  -0.2950312
   0.1399853   0.4733829   0.1192715   0.1490798  -0.0665318  -0.0921501
   0.4601796   0.1246470  -0.8353331  -0.0283887   0.4610409   0.4875486
   0.1095348  -0.1123807   0.1834803   0.4879009  -0.2311253   0.4770056
   0.6646008   0.5811668   0.3221661   0.1253992   0.0952368  -0.0348221
   0.2513694  -0.0967489   0.0922602   0.0715316   0.1483912  -0.0890089
  -0.0649733   0.1193447  -0.3376703  -1.0009517   0.9847156   0.2760118
   1.4082420   0.9531907  -1.1959735  -0.0775805   0.1934713   0.0790153
  -0.1155790  -0.1505237  -0.2052348   0.9314812   0.6120152   1.0523559
   0.0559167   0.1311308   0.0394531  -0.8844687   0.4328302   0.4136071
  -0.5321143   0.3240439   0.2677066  -0.2332204   0.2025026   0.1134511
  -0.3105065  -0.1181066   0.1248889   0.0940483   0.9484720  -0.6569888
   0.3280796  -0.0060419  -0.0198033   0.3149416  -0.3263352  -0.0707160
   0.0187161   1.3789276   0.6130877   0.0135335  -0.0581901  -0.2042376
  -0.3911921   0.0436384  -0.3747639  -0.3493701  -0.7312920  -0.3747847
  -0.1680386  -0.2568353  -0.1042108  -0.4710618  -0.9746708  -0.0008659
  -0.6207645  -1.2590192   0.0303585  -0.3206033  -0.1646542   0.0439528
   0.1771013  -0.1666297   0.3222028  -0.4715595  -0.2098982  -0.3423819
   0.3883466   0.0930203   0.1633101  -0.8804589   0.2521373  -0.7121395
  -0.1300049   0.1015466   0.0540986   0.1598654   0.2592648  -0.2910359
   0.4097625   0.0690392  -0.8025069  -0.3692647   0.3833102  -0.5436985
   0.3861232   0.3030630  -0.1158359  -0.1184332   0.7427784   0.4622223
   0.5950436  -0.5975396   0.6383984   0.0641010   0.1299624   0.1670663
  -0.0655166  -0.0265631   0.0598395   0.7581322   0.2121785   0.3944244
  -0.1112594   0.1000744   0.2278940  -0.4991809   0.4492889   0.0115524
   0.1574138   0.2512451   0.5696678  -0.1038230  -0.0422864   0.0634748
  -0.2536437   0.2675373  -0.8684719  -0.1695967  -0.3647368   0.1336098
  -0.0580214  -0.2774558   0.1820907   0.2156949   0.1399470   0.1609981
  -1.0169020   0.6652280   0.3374719  -0.0328357  -0.2550922   0.0721802
   0.3118699   0.7277670   0.4233456   0.3400289  -0.5799547   0.7191566
  -0.1677835  -0.4383435   0.0931693   0.5303655  -0.1778256   0.1041592
  -0.3755552  -0.7080578   0.8418880  -0.1346178   0.3918089  -0.1133932
  -0.1939165  -0.4541901  -0.6514077  -1.3948820   0.8529328  -0.2487044
  -0.0417653  -0.2130213   0.1526057  -0.0420728   0.2253325   1.1122218
  -1.0254140  -0.9398739   0.6155928  -0.2928205  -0.0140789   0.0039132
  -0.3820902  -0.6854399  -0.0930257   0.2628424   0.1693531   1.1460093
   0.0454658  -0.1000478   0.1237140  -0.1698550  -0.1719990   0.0196565
  -0.6636351  -0.3918639  -0.2069970  -0.0518650   0.0017611  -0.0552295
   0.0531505   0.0540628   0.3972657  -0.0106469   0.0535868   0.3333695
   0.0555045   0.0913882   0.1009576   0.0757799   0.1792346   1.1664821
   0.0330188  -0.0288530   0.1990720  -0.2248218  -0.1336901   0.3086112
   0.8860217   0.2796383   0.6771327  -0.0341561   1.6190922   0.8472157
   0.1590450   0.0476460   0.3108049   0.4298590   0.6612750   0.4715205
  -0.3725772  -0.1226190   0.3269117  -0.2288313   0.1995404  -0.4436523
  -0.4761955   0.8156126   0.7777977   0.0420373   0.7134263  -0.1256773
  -0.0731268   0.0190445   0.1673367  -0.1176417  -0.2853449  -0.0072361
  -0.1332794  -0.5082020  -0.1433237  -0.2968188   0.1434899  -0.0246190
  -0.8310519  -0.1558913   0.2435274  -0.5681025  -0.4203641   0.0766036
   0.2231619   0.2615250   0.1415268   0.0894213  -0.8922370   0.2559057
   0.4407767  -0.3310397   1.1059961  -0.1471483  -0.1365867  -0.0705639
   1.0621514   0.0705246  -0.2017997   0.4792186  -0.1335376  -0.1109919
  -0.0877560  -0.1836322  -0.0603352   0.6380279   0.6091162   0.7289744
  -0.0307253   0.1219672  -0.1473805   0.0573258  -0.1239382  -0.0414416
   0.1195670   0.6659104   0.6760448   0.8541761  -0.7092583  -0.1858980
  -0.0089107   0.0372977   0.0318926  -0.2319600  -0.2185799  -0.2374479
  -0.1802915  -0.0870102   0.5069329  -0.0230103  -0.1106843  -0.1266377
   0.2033184   0.0861681  -1.0411582  -0.4590744  -0.5337908   0.8782394
   0.2919761  -0.2855250  -0.1480523   0.1095931  -0.9454305  -0.5437349
  -0.7498935  -0.4497831  -2.3540504   0.0137417  -0.0689837   0.0145942
  -0.6424162  -0.2902623  -0.9248876  -0.1765283  -0.2665529   0.0304063
  -0.2062223   0.1491143   0.0780471  -0.3873871   0.2627934  -0.5770128
  -0.1867597  -0.1340770   0.9151579   0.2447848  -0.1297132  -0.3289086
   0.7723585   0.4479982   0.2060702  -0.5601424   0.0511425  -1.8040222
  -0.2629635   0.0192561  -0.4193077  -0.8080513   0.2898148  -1.1698294
   0.7979538   0.0812115  -0.2765725  -0.0408313  -0.1353805  -0.0082301
  -0.2069456  -0.4865924  -0.9859570  -0.5752551   0.8317007   0.4978158
   0.1622400  -0.1681299   0.2685984   0.1723435  -0.2833369   0.2923008
   0.5250435   0.6432813  -0.5102423   0.2313460   0.1133730  -0.1750980
   1.1787896   0.7151409   0.8132341   0.8943409   0.4980196   0.5073190
   0.1391218   0.2078797  -0.1783146   0.7424192   0.6628844   0.0206633
   0.4313131   0.6238278  -0.0889884  -0.3503696  -0.2368349  -0.1437706
  -0.2955497  -0.0279765  -0.1126147   0.2716122   1.0211013  -1.1863139
   0.1507694  -0.1466074   0.0676709   0.0814515   0.4268191   0.2302758
  -0.4010761  -0.9826163   0.6402617  -0.0154422   0.1458285   0.0695712
  -0.5422046   0.7416360  -0.7336811   1.0854044  -0.2405333   0.4758213
  -0.2070575   0.4288938  -0.1564351   0.9157669   0.2322909  -0.2561063
  -1.2008388  -0.0720735  -0.3243052   0.1060223   0.0639383  -0.0568673
   0.1637924   0.1396115  -0.1315653   0.6230351   0.8512285  -0.0354630
  -0.0653859   0.2063354   0.0227635  -0.3793162  -0.4031324   1.4422900
   0.4801649   0.4379223   0.3465194  -0.2178781   0.0807241  -0.0718306
   0.0159842  -1.2858526  -0.1408038  -0.2925108   0.3123565  -0.0931323
  -0.1433968   0.0665390   0.0151559   0.5072081   0.5354039  -0.1973454
  -0.6048674   0.0741907   0.1491747   0.1043177  -0.0744285  -0.1668770
  -0.1680643   0.3698772   0.1850389  -0.0296017  -0.0026459  -0.7618271
   0.0931979   0.0861513   0.1229779  -0.0320915  -0.5463613  -0.2706434
  -0.3637659   0.1412154  -0.3326425   0.3109914   0.0515649   0.3157115
  -0.1148481  -0.5461495  -0.7894364   0.7244271   0.5203698   0.1739962
   0.1619012  -0.0515189  -0.2590901  -0.3802636   0.2524571   0.3746037
   0.6677141  -0.3508779  -0.4552967   0.0481124  -0.0086428  -0.0244347
   0.7501017   0.7695380   0.4644443   0.1348552   0.0998855  -0.7142705
  -0.2619281   0.1113673   0.3695231   0.2385926   0.6479555   1.0935919
  -0.3272755  -0.0152772   0.0733723  -0.1926538   0.3699583  -0.1247754
   0.5182984   0.5030733  -0.1366844  -0.4136369   0.3736332   0.6119328
  -0.3230443  -0.3199231  -0.1797471  -0.0893543   0.3688386   0.1262210
  -0.4824320  -0.0754506   0.7672152  -0.1539509  -0.0353213   0.1550695
   1.2664779   0.6033221   0.1412404   0.0611439   0.1829982  -0.3062733
   0.3239577  -0.2542038   0.3118076   0.3169441  -0.5549877   0.6381921
   0.9430471  -0.3484535  -0.1477892   0.1120667  -0.2882153   0.3389970
  -0.0071391  -1.4033968   1.1785692   1.0452800   0.6780934  -0.0569421
   0.0081675  -0.1002502  -0.1031769   0.0763216   0.0632898  -0.6005500
  -0.0671740  -0.2660490   0.4661169   0.0662071  -0.0998581  -0.1735920
  -0.5798392   0.7465063  -0.3142044  -1.5031251  -0.7734755   0.7520372
  -0.0982588   0.0170639  -0.2443227   0.3170735   0.1202351  -0.2803744
  -0.2195990   0.3608857   0.2640070  -0.0244001   0.2591347   0.3504169
   0.0975474   0.3933471  -0.3441822  -0.4156020  -0.6979932  -1.1335525
   0.0082941  -0.2480956  -0.1614515  -0.6415500  -0.0721879   0.3796896
  -0.3982005  -0.3340961   0.5454934  -0.3486890  -0.0434880   0.2724169
  -0.5395890  -0.2845262   0.1661540   0.8955112  -0.0895784   0.7773618
  -0.1551965  -0.3681872  -0.0798207  -0.2457574  -0.3591005  -0.6840154
  -0.2034821  -0.3694680  -0.3261761  -0.0654692   0.2260623  -0.1155451
  -0.9213717   0.4177608  -0.7298217  -0.8827370  -0.2459217   0.6971726
   0.1621013  -0.0364021   0.0392104  -0.7439456  -0.1812130   0.3535821
   0.0885201   0.7141886  -0.6230216  -0.0131476   0.1206611  -0.0908037
   0.3726392  -0.2973726  -0.3926199  -0.3001965   0.5438083   0.1178475
  -0.0001806  -0.5006505  -0.1686728  -0.0399808  -0.2859621  -0.1693515
   0.8523106   0.0121758  -0.3674219   0.1047920   0.1170227   0.3030888
   0.5438580   0.1831290  -0.0369688  -0.2381491   0.6786923   0.3904051
   0.2149448   0.0099305   0.1530313   0.7184787   0.3270788  -0.0327828
   0.1254581   0.2148306   0.0707533  -0.1195604  -0.3289107  -0.3101735
   0.0556630  -0.5659191   0.1096161  -0.8456095   0.0466578  -0.2688631
  -0.0500140   0.1345085   0.2034047  -1.0512453   1.3068316   0.2700251
  -0.5077510  -0.1891380   0.0120578   0.3234429  -0.1184301   0.3701395
   0.0195299  -0.4783637  -0.3977771   0.5855779   0.0160334   0.5106327
  -0.1409530   0.2721850   0.2470566  -0.3922003   0.0807521  -0.8004979
   0.9508841   0.2651894   0.1767992   0.0839204   0.1529744  -0.0320440
  -0.0374158   0.4944039  -0.8790688  -0.0214400   0.4155312   0.0840941
   0.1010067  -0.0300971   0.2244597  -0.4567982   0.1609288  -0.2557184
   0.8693810   0.2061957  -0.3952947  -0.3154957   0.1558129  -0.2616740
   0.2214467   0.3496205  -0.6641472   0.0464575  -0.4604157  -0.1094599
   0.0291714   0.2440737   0.1753491   1.5146389  -0.0946136   1.2570357
   1.5668852  -0.0997403   1.2946939   0.3220796  -0.2232822  -0.0269249
   0.4327139  -0.0925485  -0.3104257  -0.4589100  -0.3561405  -0.3646345
  -0.1657813  -0.0962610   0.1273736  -0.1530990   0.0379805   0.0154690
   0.3461561   0.5093904  -0.2427076  -0.0249191   0.2375383  -0.2170403
  -0.5815015  -0.8592990  -0.4264820  -0.1110456  -0.0283714   0.6584699
  -0.2580830  -0.2050990  -0.2665179   0.0005077  -0.3576678  -0.2704177
  -0.4046367  -0.3398289  -0.1440081  -0.0300868  -0.2579944  -0.3480984
   0.7506959  -0.2555727   0.2263221   0.2034801   0.7647506   0.7112532
  -0.2009684  -0.3879888  -0.2035336   0.4328971   0.0699935  -1.0211374
   0.1558361  -0.2459816  -0.4292502  -0.2620274  -0.0248491   0.0553645
  -0.5892198   0.4660869   1.0255329  -0.0205640  -0.1553977  -0.2193652
   0.3531840  -0.0276612   0.0680966  -0.9821975   1.0170278  -0.4034436
  -0.3549215   0.1845441   0.3701537  -0.0060674   0.1570946   0.4289559
  -0.0499088   0.8951283   0.6600369   0.0679741   0.1120764   0.4941495
  -0.2175917   0.0826980   0.2308234   0.4445933  -0.5687397   1.6816496
  -0.5212541   0.3870134  -0.3808814  -0.0239786   0.0043969  -0.1552441
  -0.5364461  -0.5189305  -0.4946633  -0.7136957  -1.0134567   0.2770334
   0.0165133   0.0283879   0.1062806   0.0262659   0.0523345   0.1713010
   0.1214966   0.2356337   0.6827759  -0.0194236   0.0137103   0.0946137
   0.5892085  -0.6989431   0.6954837  -0.5506188   0.7721052   0.1916223
   0.1942393  -0.1053027  -0.1165024   0.1585059  -0.1049589  -0.1711490
   1.1098494  -0.1219711   1.3046290   0.2005173  -0.1309381  -0.1378233
  -0.0778943   0.0548248   0.0032153   0.5032783  -0.0890935   0.0517916
   0.0986916  -0.1227451   0.3288175   0.7846578   0.2624490   0.2806598
   0.7228998   0.2307100   0.2829221  -0.2448997   0.1635039  -0.2868189
  -0.2032978   0.3897246  -1.3708230   0.6709793  -0.3088793  -0.1349234
   0.1634744   0.0912272   0.0663413   0.6807219   1.2859066  -0.5083637
   1.2352086  -0.0447190   0.7686557   0.1957807  -0.0958618   0.1830533
   0.5392182  -0.2887034   0.2051998  -0.1727402  -0.2903534   0.0023223
  -0.4173449  -0.0305211  -0.2665976  -0.4863681  -0.7998158  -0.0519123
  -0.2722338   0.0204000  -0.2614057   0.0674776  -0.1127362  -0.0705741
   0.6493920  -0.3496384   0.5006350   0.7723877  -0.4440253   0.7780181
   0.0688569  -0.0891597  -0.1198732  -0.4313534   0.4307166  -0.4340763
   0.9151782  -0.9401044   0.1336159   0.0877346  -0.0128693   0.0579306
   1.5631982  -0.1096730   0.4658442  -0.2728207   0.0339025  -0.0976982
  -0.0622312  -0.0322545  -0.0321684   0.2133675   0.0731225   0.0586311
  -0.1026646   0.0492774  -0.3579646   0.0827726  -0.1013586  -0.0316238
  -0.9758909  -0.3082956  -0.7100395   0.0319023   0.7436318   0.1942062
   0.0501971  -0.0832942   0.2472634  -0.9560884  -0.2027395  -0.4113514
   0.9219822   0.1971392  -0.3164607  -0.2454941   0.2351972  -0.1670298
  -0.5362099  -0.8417826  -1.1479006   0.0384132  -0.3045643  -0.7756997
  -0.1559942  -0.2610177  -0.0309198  -0.2207076   0.0532259  -0.5423762
  -1.3020840   1.1235291  -0.0699554   0.1533308  -0.0165818  -0.0828648
   1.0425591   0.6530766  -0.2207733   0.2501544   0.1632213   0.8425644
   0.3597601   0.0928559  -0.0598969   1.0229520  -0.3486278   0.7597619
   0.2812094  -0.0599686  -0.5581559   0.0866866  -0.0023308   0.2937741
   0.6348524  -0.0342738   0.1666386  -0.2402680  -0.0343136   0.2426785
   0.2703768  -0.3835398  -0.2004769  -1.1581590  -0.5044139   0.4026340
   0.9694663  -0.3136497  -0.3907952  -0.2429266   0.1500586  -0.0911242
  -0.5791114  -0.5325066   0.4619658   0.5901232  -0.1776945  -0.3957600
   0.1175011  -0.3590400  -0.3372935  -0.0510002  -0.3614549  -0.4851538
  -0.1422381  -0.9911718  -0.4495048   0.0713996   0.1447223   0.1413671
   0.0857422   0.5546104   0.0545578  -0.1294959   0.1345524   0.1027863
   0.1459061   0.0514757  -0.2302988   0.2955094  -0.1198353  -0.9167295
   0.6260629  -0.2591382  -0.5192669   0.1181203   0.0477900   0.0159282
   0.5269422  -0.2346090   0.1155281   0.2223953   0.3157640  -0.0685204
  -0.0104703  -0.0091574  -0.0043815   0.2106609  -0.3939882  -0.3952234
   0.5359462  -0.0899161  -0.1202247  -0.0643564  -0.0740414  -0.3465613
  -0.0183529   0.5167448  -0.7384415  -0.8019619   0.2857454   0.8185209
   0.1779798  -0.2970359   0.0356072  -0.0289308  -0.2100719   0.0598605
   0.2138523  -0.3619524   0.0196660   0.3261493  -0.0627540   0.3234089
   0.1458450   0.0673751   0.2888177   0.9736015  -0.5188459  -1.2325076
   0.1813997   0.1233585  -0.2093055  -0.2510490  -0.9438430  -0.5964940
   0.2712118  -0.1603900  -0.1749617  -0.0645901   0.2458314  -0.1102416
  -0.2068483   0.0217266  -0.2808337  -0.2687744   0.2442369  -0.1384962
  -0.2497025   0.0597995   0.5111109  -0.1734818  -0.0312653   0.5207796
  -0.3323282   0.1256845   0.6334073  -0.1209881  -0.3657529   0.1577750
  -0.1072863  -0.1829999  -0.0295927  -0.0464685  -0.1554031  -0.6910760
   0.0543494   0.4548092   0.0051355   0.1440542   0.3672718   0.0720910
   0.4814939   0.5030114  -0.1773761   0.0593641  -0.0740124   0.2622204
  -1.1458687  -0.0638633   0.1088667  -0.6226650  -0.0762008  -0.7546990
  -0.0877984   0.3448058   0.1657109  -0.5321176  -0.7240706  -0.4849110
  -0.4886991   0.5968551   0.4050526  -0.4671646  -0.0937146   0.3340483
  -0.5227781  -0.1671176   0.4380224   0.1062491  -0.1902155  -0.9341424
   0.1457912   0.1853552  -0.2344172   0.2227017   0.0710008  -0.3142370
   0.0621094   0.2494545  -0.3395059   0.3306374  -0.2148489  -0.3635953
  -0.0848899   0.8948278   0.3278195   0.2002156  -0.6327293   0.7484720
  -0.1444438   0.0150314  -0.1750388   0.6810721   0.1566423   0.9335010
   0.1977892  -1.6577546  -0.1781384  -0.2646882  -0.2218998  -0.2202157
  -0.3724053  -0.8543868  -0.1703148   0.7506153   0.2714800   1.0128132
   0.4839122  -0.0331075  -0.2329504   0.1836865   0.1714801  -0.1377381
   1.0407936  -0.2783094  -0.1158346  -0.2699576   0.2112168   0.0046295
  -0.1502992   0.0057400  -0.0199768  -0.1742778   0.7143974  -0.3748097
   0.0455036  -0.4026754   0.0884124   0.2301666  -0.4719069   0.5001284
   0.3354172  -0.5496837  -0.1786327  -0.1983847  -0.3176093  -0.0846718
  -0.2386332  -0.1765587  -0.0242007  -0.0886334  -0.3126735  -0.0184393
  -0.0652398  -0.0466241   0.3105788   0.7031879  -0.4989480   0.4068452
  -0.4559496   0.0716728   1.0987435   0.0255957   0.2004428   0.0772421
   0.0142495   0.2273857   0.1064537   0.2376084   0.4243074  -0.0844941
   0.0334768   0.2832163   0.1404728  -0.0115693  -0.5164149   0.1024180
   0.0188168   0.6306218  -0.0110896   0.0525420   0.0753112  -0.3518820
   0.4785241  -0.4148958   0.1043173   0.2518512  -0.7366279  -0.2203912
  -0.0486249  -0.0431739  -0.0041790  -0.2770662   0.3209655   0.4416652
   0.6366106  -0.9312661  -1.0491600   0.0810395  -0.0946239  -0.0659682
  -0.5071965   0.5856718  -0.2674801  -0.8067118   0.3924349  -0.5441850
   0.0052354   0.0764046  -0.1454386  -0.2070866   0.9336185   0.0463445
  -0.1673849   0.8893720  -0.6171592  -0.1205196   0.3335186  -0.0318258
  -0.2111102  -0.3329349   0.3465358   0.0116407   0.0362467  -0.4423371
  -0.0564770   0.1343689   0.2002480   0.2445795   0.1544319   0.8000017
  -0.1687426   0.4654592  -0.0166108  -0.3666205  -0.0262830  -0.2920743
  -0.5617797   0.6972738  -0.1997746  -0.5474302   1.2358830   0.3314270
   0.0941793   0.2874816   0.0762311  -0.7446244   0.7796857   1.0461419
  -0.4097952   0.6108217   0.4402947   0.0105754   0.0649565  -0.6958284
   0.5535455  -0.6039602  -0.1006712  -0.8154050   0.3266773   0.0165890
   0.1962856  -0.1501254   0.1218107   0.6528017  -0.0512277  -0.0268984
   0.4224182  -1.0025348   0.5786391   0.1788995  -0.0952616  -0.1211849
  -0.6540058   0.1594293   0.2503988   0.8053961  -0.1769045  -0.3644189
   0.1879578   0.0456303   0.2637600  -0.6613151   0.2316914  -0.2232587
   0.2407156   0.1172331   0.6633653   0.3963726   0.1048486   0.1903193
   0.8052982  -0.3947677  -0.8059682   0.2455787   0.0943845   1.1357288
   0.0622883   0.1898671   0.0970129   0.2006673   0.3734879   0.7231435
   0.2624927   0.1277529  -0.7651089  -0.0688108   0.0140985  -0.0886574
  -0.2924845   0.0123230   0.0595608  -0.1587771   0.0724276  -0.3851096
  -0.2168048  -0.2026619   0.1551436   1.3431825   0.2237512  -0.1933740
  -0.3787011  -0.2636765   0.2594403  -0.0541808   0.0827098  -0.0725591
  -0.6669042   0.9298386   0.6380961  -0.4994511   0.6091830  -0.1537715
  -0.1432799   0.2880042  -0.1779685  -0.2117008  -0.1936766  -0.0364214
  -0.4226568   0.6037362   0.4010947  -0.0705920   0.1114597  -0.1504353
   0.4458149   0.1600051   0.6520450  -0.4953773  -0.3147256   0.8779871
   0.1270948  -0.1083335  -0.0310979  -1.4735423   1.6738462  -0.0877994
   0.2439690  -0.1577420  -0.0578201  -0.3513728  -0.0742076   0.1046399
   0.6325312  -0.1522830  -0.1621948  -0.7137321   0.4568493  -0.8060912
  -0.0883586  -0.0747354   0.0620771   0.6206260  -0.1817748   0.6962725
   0.4181753   0.2048522  -0.7138498  -0.1031456  -0.3441421  -0.0218553
   0.1915946  -0.0518741  -0.7915153   0.1215986  -0.0677051  -0.6303638
   0.1893364   0.0737145  -0.4424508  -0.3708293  -0.8627870   0.6147346
  -1.4425217   0.8256030   0.2460497  -0.1500209  -0.0421021  -0.1468352
   0.6061353  -2.7565309  -0.3934409   0.5121414  -1.2200308  -0.1301952
  -0.2113108   0.0421871   0.0924134   1.2483742  -1.0135773   0.0457043
   0.4277753  -0.4174663   0.1027590  -0.0134575   0.1733167  -0.0461171
  -0.4053603   0.1507031   0.3251858  -0.4082504   0.1322592  -0.0458180
   0.2264953   0.2365446   0.1142545  -0.4252598   0.8340139  -0.0764206
  -0.2676034  -0.4246657   0.1106692  -0.1393074  -0.1788287   0.1561807
   1.5649721  -0.5660761  -0.0995905  -0.7659838   0.4619179   0.6316002
  -0.0315312  -0.2840567   0.3087807  -0.2631686  -0.0794823  -0.1608112
   0.1386979  -0.6974687   0.2594917  -0.0407679  -0.4854101  -0.1629934
   0.0920423  -0.3346140  -0.6339598  -0.0170279  -1.0228296  -0.1116886
   0.0539010   0.3856273  -0.3833917  -0.1124401   0.5329999  -0.1566447
   0.0326765   0.1806463  -0.5941080  -0.0973469   0.3497062   0.1059254
   0.1682927  -0.7980449   0.1541806   0.7556380  -1.1858732  -0.9088857
  -0.1628948   0.0403584   0.1032403  -0.2751385   0.0390571  -0.0516778
  -0.1702622  -0.3851741  -0.2432035  -0.1865504   0.0648828   0.1050171
   0.8720385  -0.0451195  -0.4028651   0.5255591  -0.6688764  -0.3415990
  -0.0498919   0.0363565  -0.2427556   0.1362279   0.4766232  -0.4958537
   0.0369574   0.1748282  -0.2522777   0.0254155  -0.0867270  -0.0514257
  -0.1260999  -0.3238992  -0.2654147   0.0629837   0.0897267  -0.2782166
   0.2698084  -0.2372452  -0.1033600  -0.0032925  -0.2664599   0.4806197
   0.1953540   0.0553956   0.8194135  -0.0032296   0.1512384  -0.3268603
   0.5553793   0.3754392  -0.0920675  -0.1712962  -0.5409758  -0.2342293
  -0.0309294   0.0947494   0.1514992   1.4698672   0.7683247   0.3405181
   0.0409748  -0.6513653  -1.1303933  -0.1015357   0.0327546   0.0133664
  -0.5054699   0.4884122   0.3916540   0.2794475   0.5616637  -0.2648091
   0.0071588   0.2657810   0.2590502   0.2597417   0.3457787   0.1741508
   0.0572186   0.0702765   0.1819536   0.0869065  -0.1340932   0.2215284
  -0.4268150  -0.4065485   1.7254929  -0.8118672  -0.5110986  -0.4416170
   0.0302817   0.2991095  -0.3991060   1.1216908  -0.7935563   0.3187063
   0.0160464   0.0803227   0.6701984  -0.1186051   0.1000942   0.0756982
  -0.5937544   0.6793356   0.9266261  -1.4397715   0.5679939  -0.7226706
   0.1779748  -0.5218458  -0.2069418  -0.7455002   0.0989236  -0.0985406
  -0.3420503  -1.5461694  -0.0604638   0.0477640   0.2384386   0.0519279
  -0.4526731   0.8849258  -0.0093152   0.5468463  -0.2507096   0.5653468
   0.2656194   0.2082454  -0.1227670  -0.4589995  -0.0464247  -0.2885722
  -0.6390128   0.3705828   0.0466183  -0.2024986   0.0798939   0.0215186
  -0.5257474   0.5710843  -0.1975428   0.2720112   0.2468420   0.4284383
  -0.1375647   0.1075836   0.0533708  -0.0112550   0.3903538   0.0252684
   0.2805273   0.2275032   0.1853931  -0.1548236   0.1780081  -0.1040339
   1.2853904   0.7103351   0.4699872  -0.5039957  -0.2820648  -0.2827829
  -0.0249920  -0.1377405   0.2013924  -0.3205374   0.2890684   0.5130961
   0.5351295   0.1397339  -0.2765639   0.1371619   0.2803142   0.4177176
  -1.1435783   0.1608365  -0.4878670   0.0617091   0.4636057   0.6378432
   0.0683368  -0.0136822  -0.0099129   0.5255807  -0.6171891  -0.0024794
  -0.8853426  -0.0683440  -0.1604525  -0.0565894  -0.1983205   0.0121756
   0.6653906  -0.2925199  -0.1831704   1.1114353  -0.3789767  -0.1962957
  -0.0617487  -0.1459568  -0.0578422  -0.2257656  -0.1232371  -0.9565658
  -0.4064977   0.4581731   0.0417152   0.1940020   0.1113313  -0.0160486
  -0.4073537  -0.3212569   0.1872974  -0.6343105  -0.5419177  -0.1206751
  -0.1593699  -0.0278104  -0.0419228  -0.1011416   0.4670736  -0.6274510
  -0.4975943   0.2376868  -0.2922233   0.1849758   0.2204203   0.2818604
   0.1873466   0.1156820   0.3095123  -1.5700341   0.2455216  -0.3647312
  -0.1688815   0.0464838  -0.1990905   0.6587113  -0.3822810  -0.3404704
   1.4864038  -0.5901800   0.4640009   0.2152624  -0.1722738   0.1196305
   0.2258032  -0.0150319  -0.4026918   0.9838131  -0.4299110  -0.6223950
  -0.0429483   0.0327651   0.0462095   0.1632955  -0.5319010  -0.3353166
   0.9901482  -0.7861300   0.2269611  -0.2034232  -0.0916189   0.1144253
   0.0429294   0.1854000  -0.2270951   0.3571442  -0.1479412   0.6583240
   0.0741904  -0.2165069  -0.1008473  -0.1859011  -0.1682677   0.3720765
   0.3899281  -0.2537016  -0.1800325  -0.0337618   0.1634538   0.3833785
   0.3987374   0.0649426  -0.1087016   1.7702827  -0.2932756   1.1867365
   0.1600947   0.1570713  -0.1401683  -0.8771976   0.4423326  -0.4374251
  -0.0065167   0.4880926   0.6045093  -0.2219122   0.0194359   0.0274077
  -0.0383189   0.0659432   0.0361499   0.2123445   0.1061211   0.0213167
   0.1145061  -0.2275944   0.0221583  -0.0053836  -0.3489091   0.4189261
  -0.1374666  -0.0581349  -0.1600371  -0.0691002   0.2596667   0.1284780
  -0.3943056   0.7770484  -1.0134640  -0.4119969  -0.5497511   0.5655528
   0.1492475  -0.1138602   0.0873821  -0.9240987   0.4655646   0.0175966
   0.2634534   0.5605051  -0.5252506  -0.0587848  -0.1273567   0.1286666
  -0.4841892   0.5190827  -0.2400089   0.6390145  -1.2084469   0.9036606
   0.1638711   0.0135992  -0.1657376  -0.8469949  -0.1156110  -0.6923771
   0.3841946   0.5980826   0.5146747  -0.2716095   0.1737458  -0.2493394
  -0.1407477   0.1660226   0.0165273  -0.0082752  -0.0700330  -0.7762741
  -0.0809175   0.0495459   0.0072250   0.9618620   0.2351702   1.0920770
  -0.1430900   0.2257569  -0.1961363   0.1908338  -0.3036628  -0.1801649
  -0.4106029  -0.1337297  -0.3345923  -0.3785459  -0.2349850  -0.4709812
  -0.2665298  -0.0796636   0.0460526  -0.8120720  -0.1386485  -0.5590763
  -0.0247285  -0.6294538  -0.2602561   0.1183562   0.2526154   0.0753074
   0.0447161   0.8032222   0.1602690   0.4024722  -0.1239981  -0.1287150
  -0.1746534   0.0558153  -0.1247284  -0.0892468   1.0620856   0.5563720
   0.1911548  -0.3102327   0.8124337  -0.0360511   0.1303154   0.0212275
  -0.2500149  -0.3900562  -0.0525314   0.3305167   0.6593916  -0.4783376
  -0.1554630  -0.3011544  -0.1614721   0.3578101   0.5405908  -0.0610139
   0.0069602   0.8718037  -0.0608087   0.1685637   0.0029223  -0.0183204
   1.1350680  -0.1205170  -0.3921201   0.8582616  -0.3234250   0.4047067
  -0.5028991  -0.1895690   0.2315272   0.8495013  -1.4255770   0.5050486
  -0.2844389  -0.2623835   0.3617441   0.0824658   0.0168100   0.0554798
   0.6754233  -0.5494872   0.3828755   0.3115440  -0.3161480  -0.9656420
  -0.0791347   0.0201371   0.0305190   0.3202671  -0.5105182  -0.4042715
   0.1174106   0.0356950  -1.1974584  -0.0225307  -0.0490839   0.0839909
   0.6613545   1.0003487  -0.3651819   0.3725602   0.4749547   0.8430382
   0.3671639   0.0905862  -0.0180845   0.0378308   0.4284709   0.1762930
   0.6956583  -0.0313856  -0.4603158  -0.0718488   0.0999304   0.1990513
  -0.0768553   0.0307448   0.0668617  -0.3241175   0.2040972  -0.0245477
   0.0704932  -0.1522973  -0.2027143   1.2706944  -0.5359678  -0.5054997
  -1.0458727   0.0445617   0.7987336  -0.0507231   0.0634274  -0.1760556
   1.2947462  -0.1936520   0.1608922   0.6548268   0.5819073  -1.1138442
  -0.2054837  -0.0617412   0.0706956  -0.0226604   1.1746237  -0.0840408
   0.6793454  -1.3784630   0.2635377  -0.0201047   0.1854978  -0.1451984
   0.9075608  -0.9950074   0.0982739  -0.4559189   0.5297249   0.7145826
  -0.1526740   0.0405729  -0.4129154  -0.6015536   0.4744638  -0.3880896
   0.3141286   0.2675776  -0.0707941  -0.0996356  -0.0533086   0.1135118
   0.2892816  -0.1816724  -0.4303454  -0.1024528   0.1913904  -0.1614907
  -0.4149871   0.1371776   0.2867005  -0.4600878   0.0834286   0.2869746
  -0.7786308  -0.6482532   0.0776655   0.0455736   0.0873143   0.0241518
  -0.0950787   0.2272975   1.1212979   0.2206936  -0.1706128  -0.7395490
  -0.0695254  -0.0024934  -0.2192761   0.6365532  -0.0505748  -0.4356832
  -0.0569653   0.0733236   0.1468263   0.2318650  -0.0705451   0.0903824
  -0.6411199   0.2493561   0.3209295   0.7228099  -0.1174531   0.8724196
   0.2739459  -0.1175428   0.0102186   0.1685776  -0.2587622   0.0139672
  -0.3229881  -0.0457303   0.2877841   0.1992589   0.1381557   0.1579357
   0.6677338  -0.3683627   0.4232746  -0.3605284   0.7903536  -0.2315930
  -0.0177156   0.1790722  -0.1091513   0.5919031  -0.1847567  -0.5467587
  -0.9732130   0.7269206   0.5949612   0.1647996  -0.0646601  -0.0104447
  -0.1342103  -0.5239892   0.1904293   0.9834991   0.0385547  -0.4129249
  -0.2132655  -0.1178501  -0.0090071  -1.1490985   0.4438048  -0.5975117
   0.1963945  -0.4710900   0.3895321  -0.0479927  -0.0703646  -0.0644733
  -0.2674618   0.9944538   0.0850166   0.6991425   0.5733608   0.7588422
  -0.0906421   0.1447157  -0.4252245   0.5944876   1.0058701   0.1103990
  -0.3095535   0.9544576  -0.8969613  -0.1473740  -0.1858781  -0.1226153
   0.6766120   0.3613333   0.0564114   0.1218961  -0.3637669  -0.9498496
   0.0420489  -0.0720095  -0.0892585  -1.0276991  -0.2777371   0.1126097
   0.1124721   0.1182179   0.6232584  -0.0277802  -0.0491157   0.0601082
   0.2642616   0.3969562   0.4748243  -0.2880971   0.4345292  -0.2305613
  -0.3869899  -0.0457843   0.4693866   0.2642381  -0.4160770   0.2656102
   0.4562501   0.2700964  -0.6812708   0.1046964  -0.0579605   0.0241789
   0.3742012  -0.0242213  -0.2293936   0.5202299   0.0825319   0.0243318
  -0.0040192  -0.1285826   0.1267503   0.6084070  -0.6550177  -1.0781152
   0.2707002  -0.2652194  -1.4137053  -0.1287036   0.1080820  -0.1716886
  -0.6974557   0.2355914  -0.3811246   0.7697620   0.3408524  -0.2803636
   0.1049668   0.1505314  -0.1585352   0.8920766  -0.6529197   0.0787960
  -0.4960229  -0.4056716   0.7156097  -0.3984632   0.4991974   0.2837581
  -1.5544036   0.8013875   0.0621569   0.7211747   1.0528196  -0.4350617
   0.2464224  -0.1674844  -0.1301931   0.0996369   0.0532804   1.2516981
   0.6572975   1.0973261  -0.6950960  -0.1262292   0.1212108  -0.1873307
  -0.0512511  -0.4860540   0.5754377   0.2579143   0.0040167  -0.5772632
   0.1216663   0.1479492   0.2406659   0.6345599   0.5043163   0.0916523
  -0.3881533  -0.8515408   0.1072503   0.0918723  -0.0178971   0.1136418
  -0.2918178   0.0253248   0.2694511   0.0508494  -0.1606739  -0.1242716
   0.1483968  -0.1573425   0.1874319   0.5521780  -0.1089751   0.0033283
   0.7214936  -0.8243888   0.3755013   0.1178175  -0.0224477   0.0445359
   0.3711809   0.5257190  -0.7708762   1.0171012  -0.5146216   0.7172805
  -0.0380691  -0.0519409   0.1443842  -0.5733199  -0.4505913  -0.0715739
  -0.9307087  -0.8064277  -0.4137410  -0.1183395   0.0707796  -0.0573379
  -0.6900445  -0.0013911   0.4421628  -0.6750616   0.4648685  -1.1121681
  -0.1074528  -0.0929732   0.0814891  -0.0055266  -0.1051894   0.4037315
  -0.2484298  -0.2000074  -0.3963275  -0.0109946  -0.0438133   0.1155797
  -0.3320325   0.9129510   0.1186460  -0.0566432  -0.3045015   1.3738254
  -0.0547359   0.1707262   0.1504615   0.5201088  -0.3638980   0.6867145
  -0.0204441   0.6382510  -0.2031417   0.0219876  -0.3243918   0.3013718
  -0.5314737  -0.4691180   0.0488067  -0.7290513  -0.1739325  -0.5847659
   0.3275546   0.2332981   0.0795300   1.1392468   0.2904386  -0.1567685
   0.6006456  -0.1206579  -0.7068400  -0.0837575   0.1793885  -0.4358861
  -1.0448510   0.2294070   0.9229859  -1.1488884   0.1431311   0.4642683
   0.0421399  -0.0268802  -0.0023406   0.1906454   1.5886349   0.6121253
   0.0626455   0.7501413   0.2918018  -0.2572813   0.0436170   0.0277754
   0.2684104  -0.7182663   0.3905804   0.9937263  -0.9988372  -0.8488312
   0.0134205  -0.2168846   0.1592167   0.1234119  -0.3374024  -0.1085952
   0.3153773  -0.5653752   0.3958918  -0.0152572   0.0190516   0.0928509
  -0.0466994  -0.4196639   0.0431138   0.2918707   0.2847994  -0.0599313
  -0.0324642  -0.0327098   0.0481859   0.2342231   0.4749617   0.0985636
  -0.8511156  -1.1103612   0.4711556  -0.0600743  -0.0966738   0.4923192
   0.1025544   0.3378119  -0.6734348  -0.4408979   0.7007604   0.3575706
  -0.2702979  -0.0566101   0.1655495  -0.5559989   0.2233515   0.1319312
  -0.0495470   0.2100723  -0.3083408  -0.1017737  -0.0059970   0.0676994
  -0.5661282   0.7934424  -0.0386230  -0.2212301  -0.5369383  -0.3399134
  -0.1030980   0.2332935  -0.3728637   0.0244083   0.1834986  -0.1276260
   0.1673344   0.6308088  -0.2585519  -0.0617022   0.2097611  -0.1973964
  -0.1898401   0.7668509  -0.8917581  -0.1534834  -0.4754920  -0.6875879
  -0.2956720   0.0147601   0.0343968  -0.1761991  -0.5147597   0.2145049
   0.1942774  -0.0483792  -0.5161864  -0.1462411   0.2039007   0.4132075
  -1.3458150  -1.0693794   0.7363917   1.0676436   0.3482150   0.4265781
   0.2515888  -0.1850674   0.1843227   0.2110688  -0.2902879   0.1642011
  -1.1578974   0.1826660   0.5369816  -0.1497364   0.1019389   0.1858616
   0.4689679   0.0306032  -0.0757646  -0.5811725   1.1550984   0.3143507
   0.0253633  -0.2360404  -0.1476331  -0.0921153   0.1465809  -0.6169583
  -0.1423045   0.0227095  -0.0719319   0.1202589   0.3365641   0.0539051
  -0.4178306   0.1916875   0.2272355  -1.0017272   0.2139509   0.0261687
  -0.2735789  -0.1839985  -0.1527117  -0.1060656   0.8070189  -0.3808399
  -0.2531758  -0.7229490  -0.1800115   0.0362479   0.0215643   0.4103176
  -0.1961837  -0.2526043  -0.7586513   0.3345362   1.1700026   0.5342679
   0.0035125  -0.2357830  -0.1718704   0.0278984  -0.7053376  -0.5720365
  -0.4107474  -0.5607347  -0.0506680  -0.0083855   0.2978351   0.1564599
   0.3597396   0.2466518   0.6191390  -0.4016625  -1.0419835   0.1166714
  -0.3571625  -0.3589043  -0.3674486   0.1316105   0.3821825   0.3051172
  -0.3545527   0.4471882   0.5540786   0.0676689  -0.1412266   0.0381483
   0.6716504   1.0979487   0.1344353   0.3105358  -0.4021923   1.2762553
  -0.0856902  -0.0605842  -0.0171710  -0.1567165   1.3887230   0.6747920
   0.1134637   0.7770628  -1.0435886  -0.0552019  -0.3338594   0.1994911
   0.6072152  -0.4707523  -0.2959854  -0.2717452  -0.0307740  -0.2140374
   0.1088502  -0.0428506  -0.1332847   0.0118960  -0.0351765   0.5361773
   0.3395077  -0.2297244   0.2903863  -0.0051737   0.0916661   0.2905506
   1.0861765   0.3165859   1.1272189   0.6414510  -0.1602551   0.5114686
   0.1281173  -0.2481376   0.0584088   0.2362249  -0.0625846   0.4228833
   0.0021959  -0.2171936   0.2944485  -0.0983929   0.1986206  -0.2003206
   0.0365329   0.2269339  -0.5713315  -0.8539690   0.2515741  -0.4885429
  -0.1356140   0.0297907  -0.0143493   1.2736478  -0.6131022   0.2811685
   0.1410003  -0.4266735   0.6429789   0.1755564  -0.0560803  -0.3801816
   0.8681737   0.7821614   0.1684248   0.1570397  -0.2986114  -0.4687212
   0.1961840   0.0922199   0.1913836   0.0225566   0.5139412  -0.4414774
   0.2084165  -1.0730054   0.4315215   0.1722783   0.0060898   0.1090587
   0.1170356   0.0777051  -0.0425034   0.6687005   0.1657168  -0.5457938
  -0.2675048   0.2356378  -0.0722923   0.3894215   0.5373141   0.4032672
  -0.2127428   1.4008493   0.4269614  -0.0487367   0.2697818  -0.4190337
   1.3317520  -0.3891907  -0.2586048   0.0264164   0.4328378   1.1152089
   0.0123405  -0.2049384   0.3472911   0.2970478   0.0472220   0.5033777
   1.4074912   0.1964399   0.5219888  -0.0918075  -0.0757562  -0.0568890
  -0.1939241  -0.8265198  -0.3831543  -0.3182247   0.1496316   0.0064003
   0.0941812   0.1416182  -0.1950272  -0.6596540  -0.6835182   0.8165064
  -0.3138311   0.6136139  -0.8583440   0.0626991   0.0090853  -0.0987970
   0.0663107  -0.5303123   1.1429877   0.0246880  -0.4739948   0.7531757
  -0.1868379  -0.0754587  -0.0322836   1.0433749   0.6203576  -0.0707950
   0.3657577   0.5485918  -0.8594684  -0.0230416  -0.2100078   0.1479251
  -0.7158831  -0.0549445   0.3415306  -1.3329629   1.1620114   1.8788722
   0.2484959   0.1387557  -0.3384305   1.1009058   0.4082858  -0.0791426
  -1.0048686   0.1806308   0.7905823  -0.2955919   0.1072121   0.2214574
   0.0233525  -0.5156361   0.1062857  -0.7826135   0.7735787   0.3876284
   0.1285292   0.0236786  -0.0266237   0.5361374  -0.3106618  -0.2368308
  -0.8703885  -0.7134203   0.1828849  -0.1772785   0.0865749  -0.0912956
  -0.7732776   0.5092757  -0.4300162   0.2431469   0.6535930   0.1990504
  -0.0832820  -0.0124188  -0.0909100  -0.6057136   0.0213146   0.5054466
   0.8952492  -0.0834052  -0.0558260   0.1966960   0.1382354  -0.3810902
   0.4475629   0.4342590  -0.6568778   0.3295614   0.3638375  -0.4943565
   0.4182419  -0.0378309   0.0526765   1.0311589  -1.0094763   0.9882929
   0.4038160   0.1881962   0.0035752  -0.0081504   0.1872021  -0.1777349
   0.5153988  -1.0632895  -1.2781653   0.4737438  -0.3293395  -0.2095536
   0.0702879   0.1186319   0.1505292   0.3942770   0.7680628   0.7907352
   0.5328183   0.3726028  -0.2240366   0.2820933  -0.0905173   0.1927561
   0.1548808   0.5788767   1.0913131   0.0261226  -1.1215445  -1.0041618
  -0.2075772   0.2501617  -0.0118960  -0.8234030  -0.4971507   0.7866803
  -1.2228479   0.2019872  -0.0683548   0.1928932  -0.1344936   0.0244318
  -0.0381352  -0.0279190  -0.0801313   0.6067832   0.7998862  -0.5082904
  -0.0791348  -0.0082444   0.0922079   0.9503326   0.8931804  -1.1005082
  -1.0876978  -0.6863220  -0.4464948   0.1075216   0.0618849  -0.2428326
   0.6595243  -0.0602027   0.4322828  -0.7878595  -0.0867470   0.0899016
   0.1503816   0.0863919  -0.0558430   0.1531465   0.7630119   0.5374848
  -0.0634791   0.0594998  -0.6711906  -0.0479786  -0.2627099   0.0579903
  -0.0760259   1.1166524  -0.6629518  -0.2917997   0.1206800   0.3379623
  -0.0439061  -0.0336208  -0.1999158   0.0768374  -0.4227888  -1.8640445
  -0.1863399   1.5041167  -0.2121467   0.0324152  -0.1161676  -0.2552466
  -0.0115512  -0.6896032   0.0802834  -0.2337214  -0.1076606  -0.4652508
   0.1184274   0.0656540   0.0318786  -0.3416813  -0.7642314   0.2720098
   0.4333563  -1.4242277  -0.3661941  -0.1721989   0.2047374   0.0476130
   1.0401700  -0.1448855   0.3792002  -1.2067723  -0.1584527   1.2820074
  -0.1376080  -0.0926273  -0.2450855   0.0690523  -0.6602163  -0.9475345
   0.2137650  -1.0816756   0.4239057  -0.1531411  -0.1542280  -0.2863631
   0.0533651  -0.1623663  -0.6778950  -0.0887027  -0.4647918  -0.1031839
  -0.1496886  -0.1147395  -0.0821829   0.6656688  -0.1652786  -0.1943069
   0.3637456   0.4670445  -0.1263817   0.0280652   0.0146200  -0.3498245
   0.4853387   1.0230617  -1.4127324   1.0116331   0.1241845   0.5418929
   0.0373766   0.3252888  -0.2290385   0.6920630  -0.9758820  -0.8654768
   0.3355859  -0.3036748   0.4757697   0.0706072  -0.0330318   0.3378332
   0.2040414  -0.0854729   0.3254218  -0.1732721  -0.1107468   0.2244711
   0.1064186   0.0623934  -0.1780943   0.7002373  -0.8651741  -0.2573921
  -0.0656021   0.4890021  -0.5658219   0.0270788   0.2513572  -0.2466892
  -0.7562387   0.5632306   0.1956835   0.1111618  -0.3927458   0.8348108
  -0.0436694  -0.2386228   0.1230220   0.2545851  -0.5292696  -0.6805790
  -1.0472070   0.7067547  -0.8585260  -0.0501975   0.0616868  -0.0168568
   0.2606389   1.3766014  -0.1735108   0.4900006   0.4623455  -0.3326413
   0.2859103   0.0580305  -0.0339713  -0.1735423   0.2717947  -0.1230050
  -1.8093115   1.5669697  -0.9982328   0.1223408  -0.0112843   0.3541458
   0.5259016  -1.0495782   0.2467402  -0.2109052   1.0438708   0.4632413
   0.2022422  -0.2003081  -0.3548988  -0.8473198   0.1908531  -0.6025832
   0.9970892  -0.5337215   0.0349340   0.3447593  -0.2614337   0.4339103
  -0.3487918  -0.2860620   0.3247590   0.4994447  -0.6110097   0.6570291
  -0.0522258   0.0601933  -0.1351390  -0.1265782   0.2689283  -0.9144950
  -0.0792491  -0.1042603   0.6168445  -0.1335451   0.3092119  -0.2404569
  -0.2088012   0.1626221   0.9634231  -1.0524692  -0.5605209   0.2449951
   0.3163743   0.2756865   0.0454171  -0.2450181   0.0534076  -0.2834545
  -0.5445829  -0.2792027   0.5011732   0.0758763  -0.0886507  -0.1214965
  -0.4216241   0.1608282   0.3217553   0.3326848   0.5084648  -0.5074436
   0.0507019   0.1068637   0.1198517   0.1949524   0.4258459   0.3218927
  -0.1994331  -0.0679728   0.4197486   0.0664230  -0.0478922   0.0697720
   0.1524048   0.0589343   0.1394103   0.1674506   0.5950301  -0.4990364
  -0.0064683   0.2926053   0.0458433  -0.0757891   0.2006927  -0.2430187
   0.7040636  -0.2893122  -0.1202540  -0.1879594   0.0348245  -0.3306494
  -0.1729242  -0.0164820  -0.8295114  -0.2401860   0.0123087  -0.0820437
  -0.1286718   0.0162878  -0.1132871  -0.6856669  -0.5336732  -0.1453038
  -0.4924940  -0.5311476  -0.3903826  -0.1152272  -0.1139037  -0.0524226
  -0.4503620   0.2906825   0.3083226   0.1727385  -0.5653850   0.4073227
   0.3742826   0.1689711  -0.0731844  -0.3378323   0.6326724  -0.1070606
   1.1668791   0.5863906  -0.6218606   0.2064474   0.2417621   0.0696626
  -0.1667817  -0.1684165   0.7619937   1.3065615  -0.3102414  -0.7860265
  -0.0159511   0.1727522  -0.1070421   0.3641201  -0.1503990   0.6475712
   0.3473292  -0.4768146   0.9971486  -0.0772175   0.0142613  -0.2530454
  -1.1299472   0.3725916  -1.3438290  -0.6724949   0.4568938  -1.2708691
  -0.3524847   0.1305915   0.2903586  -0.0102296   0.1643463  -0.2708806
  -0.2201923  -0.0026367   1.2276887   0.2105835   0.0061245  -0.1654350
   0.1718078   0.1428162  -0.1789637  -0.3274196   0.2267595   0.1136673
   0.0196115   0.2679100   0.1318636  -0.0575157  -0.2495437   0.7272628
  -0.4618521   0.2141845   0.3465944  -0.0751658   0.0093829   0.4248082
   0.6044291   0.0888004  -0.1736266   0.3638766   0.2768746   0.5706334
   0.0916219   0.0032951  -0.0588982   1.1551748  -0.5018832  -0.3192524
   0.8259958  -0.5035528   0.2936326   0.0816874   0.0917795   0.1301068
  -1.0960064  -0.2475773   0.4572949  -0.1198423   0.6265396  -1.0229618
   0.2247105  -0.0351204   0.2754603   0.8633294  -0.9123670  -0.8519625
  -0.2600633  -0.4561062   0.8165910  -0.0746141  -0.1733443   0.1743024
  -0.4137645  -0.1074717   0.6629669  -0.2911931   0.2774162   0.6111410
  -0.1514861  -0.2267665   0.3809073  -0.1429876  -0.8272617   0.4263170
   0.0856814  -0.0648470   0.5091378   0.2394943   0.0141359   0.0443806
  -0.0180474   0.4635607  -0.4679951   0.5367538  -0.3052556   0.3784573
  -0.0330339   0.2621208   0.1295893   0.2296540   0.9225400   0.2632071
  -0.4164456   0.0242129  -0.3076716   0.0027900   0.0337041  -0.0248175
  -1.0118792   0.5312867  -1.0222519  -0.0592702  -0.0939134  -0.1117324
  -0.1341412  -0.0370755  -0.1910365  -0.1552796  -0.0677380  -0.2379781
   0.0087458   0.1730757   0.1337495   0.1068539  -0.0719896  -0.2303271
   0.7605682  -0.5721448   0.8185647   0.2230002  -1.0480354  -0.6644195
   0.3281826  -0.2371165  -0.0452894   0.2930741   0.0225843   0.2591134
   0.2974725  -0.1562886   0.0507501  -0.1248893   0.0407612  -0.3475255
  -0.4900167  -2.3876833  -0.1544460  -0.9469113   0.2071093   2.0034907
  -0.0401590   0.0316036  -0.0966221   0.2321066   0.7370785  -0.1568390
  -0.1896939  -0.9972791   0.1627504   0.2092860  -0.4100621  -0.3751188
  -0.2813911  -0.9060328  -1.0685541  -0.6955919  -0.6314705   0.3545954
  -0.2709711  -0.0113488  -0.1920376  -1.0671450   0.1029374  -0.5158056
   0.7843891  -0.3478291   0.8725770   0.2107517  -0.1060942  -0.1212920
  -0.7389093   0.3205626  -0.0072401   0.7260388   0.2659729  -0.1565506
  -0.2957279  -0.2199969  -0.0723355  -0.0357896  -0.4077166   0.1287341
  -0.8254218  -0.2421318  -0.4307104  -0.0062564  -0.3083344  -0.0050567
  -0.7959686  -0.1577285   0.4369122  -0.1544221   0.1081562  -0.0370841
   0.4278266  -0.0012255  -0.2408089   0.2111887  -0.0237401   0.8221873
   0.3293649  -0.1732443  -0.5835186   0.0794161  -0.1036919   0.0050350
   0.2412895   0.1509503  -0.2561704   0.2306589  -0.4979640  -0.5088576
  -0.3776631   0.4401415   0.2807291  -0.6916209   0.5912302   0.5507077
  -0.1262720   0.8568128   0.0982092  -0.2486407  -0.1705306   0.0002294
   0.2093572  -0.3143262   0.5184794  -0.3152440  -0.2949437  -0.3377693
  -0.0871395   0.1111294   0.0608843  -0.7203179   0.0101463   0.3656231
  -0.3448024   0.0206749  -1.1413755  -0.0014388   0.1149874   0.2441424
   0.1139361  -0.0887953   0.1973662  -0.0545584  -1.3431889  -0.2628915
   0.1783497  -0.2021207   0.1220015   0.6866543   0.1142657   0.1877010
   0.2680596  -0.5234543  -0.3820068  -0.0469945   0.0967149  -0.0848621
  -1.0190255   1.5493101   0.7913155   1.1594055   0.0508146   0.0239173
  -0.2286970  -0.0393183  -0.0456594  -0.8224813   1.1414846  -0.1040978
   0.2991696   0.1306800   0.1321801   0.0853889  -0.0990186  -0.0302367
  -0.3058298   0.9551604   0.8699784  -0.6005919  -0.5219881  -0.1658951
  -0.0392904  -0.2410674  -0.1712313  -0.9947893   0.1267715  -0.1726029
   0.6736757   0.5657051   1.0831444  -0.1727407   0.0231446   0.2657223
  -0.1907371   0.4258835   0.4345943  -0.1829873  -0.0460905  -0.0860220
  -0.1463741   0.0144290  -0.4218768  -1.6050338  -0.7425389  -0.2676152
  -0.6295054   0.9482802  -1.2739747  -0.0153424  -0.2623452  -0.1696258
  -0.2912292  -0.1940491  -0.1330395   0.4982837  -0.6692220  -0.4217801
   0.1894399   0.0868593  -0.1818761   1.0136511  -0.4053092   0.6486618
  -0.0016649  -0.2275058  -0.2870058  -0.1679964   0.0104292   0.1516979
  -0.6516960  -0.1996356  -0.2287283   0.0198372   0.6837090  -0.4550585
  -0.0059119  -0.1066057  -0.3615904  -0.0889770   0.0788479  -1.0103048
  -0.0789028   0.7262703   0.4943780   0.0753605   0.2933995   0.3875174
  -0.0822258  -0.4637358  -0.6172059   0.6467952  -0.3199063   0.3401315
   0.2771973   0.1126333  -0.0802779  -0.4155169  -0.3201311   0.0608917
   0.4053707   0.1987323  -0.0982565   0.3434239  -0.0715536  -0.0049821
   1.3930609  -0.5936014  -0.4232068  -0.6807834   0.8213885   0.2838378
   0.0577673   0.2034346   0.0963358  -0.2233133   0.6156279   0.7550290
  -0.0286938   0.2035254  -0.6009061  -0.0843810   0.0875978   0.1537366
   0.1650064   0.4493399  -0.0370646   0.1147381  -0.3138552   0.2913631
  -0.0364970  -0.0293794  -0.3025639   0.0345692  -0.4318744  -0.2564346
   0.2355850  -1.5705966  -0.1253361  -0.1662931   0.0009417   0.1901949
   0.6871886   0.1967441  -0.5579332  -0.7558351  -0.8698981  -0.0328666
  -0.0513997   0.1281616  -0.2152662  -0.1329981   0.5274872   0.2351031
   0.7597091  -0.3340498  -0.0134094  -0.0490214   0.5198926  -0.3588023
   0.0802554  -0.3644704  -0.2655115  -0.4183426   0.1106870  -1.0749538
   0.0778891   0.3576957  -0.0072127  -0.0840737   1.5662307  -0.0776017
   0.1743524   1.0230674  -0.1094995  -0.1033366   0.2432070   0.0617652
   0.2055331   0.5355655   0.2731017  -0.4150561   0.8243753  -0.0516108
  -0.0436936  -0.2077580   0.1728588  -0.1315482  -0.2893743   0.1901524
   0.3690044  -0.1627187   0.3318124   0.0752394  -0.0469539   0.1403699
  -0.7459576   0.6314426  -0.0910897   0.5282167   0.0981558   0.0936036
  -0.1259630   0.0121256  -0.1182968  -1.3405955   0.2000715   0.3669357
   1.9167720   0.0030503   0.1555462  -0.0521041   0.2846980  -0.0833643
   0.0824753   0.5861805  -0.2426444  -0.3768681  -0.6286709   0.1356354
  -0.2160029  -0.0205358   0.1581800  -0.3315076  -0.1154381   0.3921546
  -0.1211453   0.0448238   0.0554408  -0.3775196  -0.1403100  -0.0726586
   0.5540867   0.8640072  -0.4430231   0.0867513   0.9179398  -0.3836971
   0.1122530  -0.0166324   0.1354468   0.0885837  -0.7119878   1.1928535
  -1.2742732   0.1542370  -0.0035099   0.1422820  -0.1894269  -0.1066579
  -0.1085199   1.1453638  -0.0741330  -1.0265548  -1.8324804  -0.1758758
   0.1512926   0.1489845  -0.0160936  -0.0116324  -1.3526499  -0.5530357
  -1.1310442   0.8349586  -0.3903393  -0.0708264  -0.1871972  -0.0340309
  -0.0420298   0.1085345   0.4718999   0.6036851  -1.3572974   0.1061931
  -0.2054657  -0.1664090   0.0854141  -0.7366204   0.3123562   0.1394339
   0.8673181  -1.2221504  -0.2339456   0.0415422  -0.0701063  -0.0835258
   0.0344195  -0.3032888  -0.1883409   0.0190297   0.0080671  -0.0924555
  -0.0089337   0.2329614   0.2128496   0.1332321  -0.0326587  -0.6234044
   0.4910362   0.0217075   0.8825168  -0.1072484   0.0137734  -0.1181122
  -0.0835080  -0.3402907   0.9627543  -0.1587077  -0.0623384   0.0152155
  -0.0565897  -0.1297300   0.3217540   0.1503916  -0.4752763   0.4242291
  -1.2182169   0.3626816   1.1930999   0.0377601  -0.0435196   0.1600871
   0.4441595   0.1103839   1.0656143   0.2074678   0.6130372  -0.0349211
   0.1382728   0.0438417  -0.0596021   0.4010183   0.7992942  -0.8942335
  -0.7689238   0.2543165  -0.8923304   0.0712372   0.0175659  -0.3072005
   0.2279820   0.6103579  -0.3195622  -0.7464500   0.1093596  -0.6926273
   0.2066537  -0.1662681  -0.0002512   0.0401547  -0.3203931   0.3133137
  -0.0435389  -0.7312397   0.0002836   0.1391704  -0.0559912  -0.2358031
   0.3527109  -0.3487510  -0.3276795  -0.6513246   1.0529288   0.6415474
  -0.2589633  -0.0128773  -0.0391577   0.4556502   0.3467691  -0.2408772
   0.2312301  -0.0953163  -0.4654692  -0.0847559  -0.0000988   0.0984883
   0.4971530   0.7353108   0.8514960  -0.4698849   0.2046112   0.0079093
  -0.0284796   0.1388919   0.0634526  -0.5430250   0.0711171  -0.2126205
  -0.0252859  -0.4604855   0.0775356   0.2750894  -0.2791725  -0.2698700
   0.2209702  -0.2288138  -0.3746133   0.2668735  -0.1966420  -0.1602615
  -0.0164731  -0.1600721   0.2760103   0.2922780  -0.6856687  -0.1139118
   0.5213443  -0.0440846   0.2174444   0.2903725  -0.2087728  -0.0047794
   1.5273791   0.7608704  -0.1830369  -0.9152382   0.7547596   1.1330090
  -0.2669379   0.0073536   0.1366667   0.5037734  -0.3968563  -0.9834573
  -0.4718427  -0.5195699  -0.1012862   0.1564391  -0.1687857  -0.0193413
   0.0032926   0.4494358  -0.1267830  -0.2848910  -0.4761849   0.5031140
   0.2054077   0.0043170  -0.1306630  -0.6360426   0.5843637  -0.5530564
   0.4628238  -0.4023129   0.3822820   0.0057927  -0.1258555   0.3329618
  -1.1409339   0.5973788   0.1302388  -0.1774211   0.7974716   0.7852662
  -0.3850397   0.1183248  -0.0125765  -0.7819131  -0.4131963   0.6872095
  -0.2067646   0.4655751  -0.2496414  -0.0519175   0.5046863   0.2526495
   0.4264317  -0.3842441   0.0134140   0.3580126  -1.1498347  -1.4905303
  -0.1221567  -0.0998153  -0.0143709   0.2340563  -0.1667709  -0.0022197
   1.0565848  -0.6183843   0.3052989   0.2605672  -0.1345818   0.0667538
   0.3928826  -0.0067028  -1.5116624   0.2377863   0.0699048   0.0140331
   0.0604755   0.0308577   0.0591941  -0.1249797  -0.1831611  -0.0670128
  -0.7335916  -0.4964067   0.1105873  -0.0572756   0.0255653   0.2024824
  -0.3784304  -0.4247553   0.0648270   0.5468363  -1.3192863   1.6669962
   0.0734793  -0.0009163  -0.0758761   0.7524747  -0.3285854   0.3428131
  -2.9715630  -0.1023814  -0.5730709  -0.1632550   0.0448029   0.0776593
   0.0382217  -0.2880367   0.5036291  -0.3501635   0.2982893  -0.0072282
   0.1885496  -0.1455328   0.1510191   0.1180393   0.6285772   0.9356516
   0.5385744  -0.8659777   0.4298394  -0.0102054  -0.1607577  -0.0371889
   0.1870244  -0.1403849   0.6232804   0.2335762   0.3735281   0.1240738
   0.1282530  -0.0559996   0.1764244  -0.4513795   0.1541729   0.7197304
  -0.5263800   0.3918283   0.7199738   0.0381064   0.0071253  -0.0542730
  -0.0216205   0.0345627  -0.0170675   0.1164188   0.2135246   0.0158902
   0.1999843  -0.1200961   0.2026659  -1.0704308  -0.3737051   0.2399657
   1.3360651   0.0628020   0.1655509  -0.0587053   0.0189884   0.1167261
  -0.4673087  -0.5617566  -0.1952604  -0.3965255   0.5809613   0.2339451
  -0.2728475  -0.0980332   0.0471835   0.2786868   0.1066137   0.2624587
  -0.7023464   0.3928585   0.1062525   0.0398986   0.1516323   0.2421198
   1.2113864  -0.1029387   1.1907296   0.1248462  -0.5291607   0.1549940
   0.2163096   0.1719314   0.0287428  -0.2549265   0.1325900  -0.4080645
  -0.9061225  -1.2571730   0.3894559  -0.0154859  -0.0939521  -0.1813707
  -0.4874726   0.7209310   0.9501796   0.1506748   0.6083818  -0.5149554
  -0.0189691   0.1376614  -0.1378089   0.7081587  -0.4878732   0.2097911
  -0.7437851  -0.3042308  -0.4490277   0.2516123  -0.0463795   0.2843646
  -0.9484193   0.7430073   0.3907734   0.0104674   0.0197967   0.3320882
   0.1789126   0.0654124   0.0767063  -0.8207983  -0.2861912  -0.0925682
   0.0221736   0.0801525  -0.0674517  -0.0650973   0.0651366   0.0934503
   0.1122795  -0.6146623  -0.9774907   0.4371436  -0.1134067   0.2160782
  -0.3309116  -0.2215965  -0.0007904  -0.4307807  -0.2591500  -0.3105441
  -0.2571529  -0.4148349  -0.3496001  -0.0957775  -0.2319288  -0.0091622
   0.3433459  -0.0995611  -0.5769773   0.4668075  -1.0247481   0.1116459
   0.1713274  -0.4607246   0.0302805  -0.1672882   1.0805709  -0.5877257
  -0.3636075   1.6013072   0.1308661   0.0187709  -0.0615282   0.0831189
  -0.4689500   0.9372034   0.6099605   0.2094902  -0.5270976   0.6497058
  -0.1338468   0.0988170  -0.1444223  -0.6209140  -0.0969309  -0.1570143
  -0.5739039  -0.5698524   0.1375312   0.0456513  -0.0092081  -0.1728263
  -0.0705425   0.2585654   0.1664644  -0.1256843   0.1382993  -0.3824563
  -0.0930743   0.0667883   0.2160857  -0.4417601   0.1550207   0.2822572
  -0.7764077  -0.4991393  -0.6262089   0.0437221   0.0209817  -0.3702892
   0.2313065   0.3775610   0.3577543   0.6510315  -1.0433711   0.6624680
  -0.1688628  -0.1813906  -0.0464025  -0.8207625   0.4363575  -0.6969762
  -1.4922361  -0.0418655   0.7919929  -0.0523135  -0.0157082   0.1579406
   1.0707113  -1.0329106   0.0490706   0.1504510   0.5984376   0.8143226
   0.0596112  -0.2612933  -0.0352813   0.9584860  -1.2868539  -0.3213118
  -0.4628884   0.3100425   0.1073954  -0.1336082  -0.1253595   0.1717270
  -0.2000801  -0.1614665  -0.1061108  -0.4898259  -1.2778052  -0.8746297
  -0.0126933   0.0722267   0.2707301  -0.1028099  -0.2348883   0.1055871
   0.2308845  -0.3504139  -0.1391120   0.2087025  -0.1102327   0.2177097
  -0.2081469   0.0679463   0.9062497   0.2447118  -0.5169743   0.5942249
  -0.2031241   0.0083302  -0.0564833  -0.0341532   0.2584810   0.1131177
  -0.5718064   0.0423232  -0.0008722   0.1586009   0.6667920   0.4505889
  -0.5997226  -0.2613246   0.0146066  -0.1609479   0.3414036   0.2326890
  -0.1698396   0.1505256   0.1862233  -0.3429246  -0.0108406   0.0062128
  -0.2560495   0.0471780  -1.2503518  -0.4905871   0.2342083  -0.0189177
  -1.1172293   0.2556379  -0.8456718  -0.2630771  -0.0934553   0.1018200
  -0.0367529   0.0708198   0.0470683  -0.8506588  -0.6866173   0.9109518
  -1.0275414   0.4911171  -0.0226252   0.0918744  -0.1385704   0.2030807
   0.6975462  -0.5248180   0.2595671   0.1508065   0.6098252   0.2734955
  -0.3914909   0.2122891   0.1438794   0.9186560  -0.0680940   0.8776694
  -0.4559816   0.7513228   0.5840050   0.0426567   0.2409367  -0.0708915
  -0.6240503   0.8593578   0.3221263   0.3692500   0.2394435   0.1429089
  -0.0570030  -0.0115188  -0.0902894  -0.7392908  -0.0141508  -0.2372396
   0.0768186   0.1037282  -0.0233905   0.1062312  -0.1451012  -0.2292884
   0.2543175   0.0476231  -0.0505041   0.1221368  -0.0821995  -0.0871024
  -0.0825864  -0.1063030  -0.2123417   0.8509348   0.3114819  -0.0504029
   0.1759338  -1.1881081  -0.1964368   0.3119087  -0.2845578   0.1558167
  -0.0151696   0.1085690  -0.4037357   0.4632795  -0.4929919   0.4429562
   0.0462098   0.0149684  -0.1881539   1.0705697  -0.2814333  -0.5918508
   0.4333971   0.1674253  -0.9234465  -0.1862556  -0.0309421  -0.2336391
  -0.8948121  -0.1643909   1.4017909  -0.8708285  -0.0561947   1.2814718
  -0.1186872   0.1968110   0.3849967  -0.4396301  -0.6577273  -0.7793137
  -0.4307796   0.3998648   0.0099291   0.0884810   0.0884241   0.0992440
   0.1833046   0.6637836  -0.3470936  -0.3868128   0.3635576  -0.2424951
   0.1157654  -0.0769507   0.0412641  -0.8131074   0.7046021   1.0383560
   0.1614906   0.8934764   0.2586248   0.0323407  -0.1170289  -0.0042582
  -1.0825595  -0.8160189   0.3673951   0.1420911   0.1403219   0.8271619
   0.0876273   0.1235850  -0.2118024  -0.1408268   0.1964430   0.0755633
  -0.7166212  -0.6812360   0.2417291   0.5837668  -0.1277139  -0.0648546
  -0.0043860   0.2550092  -0.1324156  -0.0905221   0.6334664  -0.6363765
  -0.1196550  -0.2435061  -0.0407624   0.4635080  -0.1850137   0.7523435
   0.0179680   0.7763387   0.4076758  -0.2325688  -0.0647753  -0.1635466
   0.4773527   0.0264508  -0.6727146   0.3738441   1.3729328  -0.6201489
  -0.1460740  -0.3686880   0.3093005   0.1331425  -0.4099016   0.1892128
  -0.8915762  -0.1873005   0.2803820  -0.1216452   0.1105148   0.1148586
   0.3437240  -0.6478905   0.8541111  -0.5051903   0.9057886  -0.3532619
  -0.1364619   0.0623112   0.2672604   0.0268230   0.2518417   0.2845144
  -0.1942676  -0.0688060   0.0849443  -0.1431289   0.0125726  -0.2694952
  -0.0713909  -0.1845637  -1.1545087   0.5229380  -0.4513215   0.5153039
  -0.1458634  -0.1544255   0.2051158  -0.4167820  -0.0647163   0.5046582
   0.6930771   0.0540768  -0.6265333   0.0213218  -0.0779072   0.0763986
  -0.0496250  -0.1625611   0.8574497  -0.1794610   1.3506132   0.3742014
   0.0289865  -0.0867042   0.0619635   0.5372063  -0.1878729   0.3282444
  -0.3586847   0.0244370  -0.1639814  -0.0567120  -0.2032262  -0.0140942
   1.4183478  -0.4959741  -0.1888206   0.5368723  -0.0017988   0.2876685
  -0.0747613  -0.3450068   0.4394969   0.1677313  -0.0972648   0.2624793
  -0.2667123  -0.4971542   0.3305680  -0.0580651  -0.1101918   0.0403089
   0.9098756   0.7577268   0.6683366  -1.2319277   0.5096269  -0.9799281
   0.1887704   0.4023725   0.3270729  -1.5582719   0.5595448  -0.3587585
   0.0301840   0.4585522   0.2864886  -0.0877748  -0.1626933  -0.0372650
  -0.8996288   1.4075656   1.1622821   0.8584689  -1.0567740   1.1966767
  -0.2754432   0.0940613  -0.1526577  -0.5908546   0.6899312  -0.0978030
  -0.2688425   0.3777532   0.5238683   0.0336030  -0.0240549  -0.0937532
  -0.0968348  -0.2680324   0.5259884   0.3786052  -0.2722757  -0.5125560
  -0.2019307   0.1962954  -0.1521881  -0.3495565  -0.3462834  -1.4660842
  -0.4197287   0.0458464  -0.4465280  -0.0964708   0.0297310   0.1443866
  -0.2127937  -0.4601882  -0.7099895  -0.3507615   0.2640887   0.6942995
  -0.1457522  -0.4100200   0.0208562   0.2022102   0.2296992   0.0251698
  -0.1391200  -0.6124304  -0.6887119  -0.0903367   0.0902640   0.0355797
   0.0141387  -0.1114770  -0.4803657   0.6043206  -0.7321196  -1.2761663
  -0.4999351  -0.2288544  -0.3166486  -1.0201897  -0.1684175  -0.5581624
  -0.2766213  -0.3241824  -1.0189710   0.1629404  -0.2608516  -0.0547987
   0.8052093   0.4100338   0.1803451  -0.6220142   0.3795909   0.6326559
  -0.0168863   0.0703046   0.1976647   1.0892011   0.1502542   0.0709004
  -1.5972997   0.7862136  -1.3589364   0.1955954   0.2394973  -0.0680367
   0.2868466  -0.2009614  -0.1285555   0.4451256   0.1764017   0.0627201
  -0.0175169   0.3605182   0.0024980   0.1654234   1.9359847   0.1405128
  -0.1141372   0.6223700   0.0597080  -0.5719861  -0.0364524   0.0012905
  -0.7119120  -0.0396335  -0.5732968  -1.0480023   0.3235465   0.2233697
  -0.1903830   0.0874509   0.0098577  -0.6611273  -0.3842359  -0.1473681
   0.5537288  -0.0639191   0.5638254  -0.1424173  -0.0223192  -0.4141409
   0.7600922   1.3806400   0.7393487   0.5441958  -0.6482839   0.9567752
  -0.1686631   0.0288884  -0.1092868  -0.4849045  -0.1811325  -0.3347030
   0.2171894   0.9743400   0.6503839  -0.1535680   0.2053049  -0.2588286
   0.6553419   1.0645383  -0.1911921  -0.3174082   0.4337231   0.0487066
  -0.0375115  -0.0172002  -0.2570871   0.9428044   0.6040878   0.7400422
   0.9119098  -0.5991293  -1.2808423   0.2308762   0.1099023   0.1836250
   0.8501386  -0.8698237   0.3131445   0.8217440  -0.8113170   0.2862113
  -0.1829024  -0.1606964   0.1855033  -0.4931638   0.2232779   0.3538178
  -0.3262460   0.2595402   0.3466999  -0.3130919  -0.0583146   0.0807665
  -0.9205040   0.4762084  -0.6956926  -0.5501817   0.2525187  -0.0772538
   0.1168217  -0.0370141   0.0161771   0.0025112   0.1988355   0.1395005
  -0.1104307  -0.4198842   0.6986234  -0.1857087   0.1106710  -0.3191613
   0.8740374   1.3795385   0.7190026  -1.8990541  -0.3654154   0.6068995
   0.0136992   0.2558083  -0.1690830  -0.0163350  -0.7377385   0.9976109
  -0.5394280   1.4461784   0.0032514  -0.0261124  -0.2492800   0.1798805
  -0.7812946  -1.5792767   0.5679961  -0.2076042  -0.3615971  -1.1197397
   0.0930775  -0.2530989  -0.0978557   0.2973480   0.1018245  -0.4586708
   0.4260839  -0.6226367   0.1517282  -0.2652402  -0.0237979  -0.3294524
   0.7506757   0.4543609  -0.2823671   1.7543275   0.9141117  -0.2184329
   0.0021266  -0.0910587   0.0959694   0.2186199  -0.3071957  -0.7960628
   0.3884798  -0.1764554   0.1052565  -0.1739644   0.1024144   0.0378730
  -0.6094123  -0.0437989   0.0064883   1.3211695   0.3833684   0.6156054
  -0.0207823   0.0055095  -0.3609256   0.0791322  -0.9333040   0.3863497
   0.1997848  -1.6437797   0.9794267  -0.4991426   0.2076857   0.2953503
  -0.1590847   0.1706878   0.2815160  -0.4602461  -0.4309872  -0.4142083
  -0.0354846   0.0819434  -0.1784002   0.5693969   0.3822499   0.2033560
  -1.2044830  -0.4247565   0.5690587  -0.0318242   0.0732089  -0.2681489
  -0.1637238   0.0407180  -0.3449482  -1.5297175   0.1126648   0.4707041
  -0.0523352   0.1942971  -0.2192265  -0.4528817   0.3811332  -0.8071767
   0.7081270  -0.2942338  -0.4624358  -0.0047068  -0.1018371  -0.0311917
  -0.0905657   0.1594447   0.1246776   1.1753977  -0.9038723   0.9960161
   0.2408631   0.1074371   0.2564612   0.2220066  -0.0539442   0.7530032
   0.3113120   0.1680667   0.7033561  -0.0500202  -0.2471774  -0.2612840
  -0.8775444   0.7709034   0.3098362   0.2136087  -0.3442466   1.3733531
   0.0293108   0.0526240  -0.1765308   1.1270703  -0.5325332  -0.0358407
  -0.9606507  -0.7859946  -0.3961463  -0.2928254  -0.1212812  -0.0624560
  -1.2079809   0.0394109  -0.5642166   0.4845676   0.0664775  -0.8532909
  -0.1357851   0.2146487   0.0873383  -0.1114902   0.1647085   0.1773686
  -0.2728357   0.1432584   0.5031403   0.3582108  -0.0952110  -0.0662755
   0.1350945  -0.6601205   0.0293950   0.1297228  -0.0713601  -0.1041279
  -0.0340070   0.0419632   0.0084428   0.3834218   0.4610461  -0.3708439
  -0.0687269   0.1062171   0.4411938  -0.2418773  -0.0514541  -0.3540039
   0.0928933   1.2978705  -0.2135153  -0.3993994  -0.2898823  -0.9408961
  -0.0261535   0.1111171   0.4271379  -0.2483453  -0.4207465  -0.4528322
   0.4856525   0.9273008   0.0958815  -0.0274443   0.4361565  -0.1256011
   0.1004401   0.3547308   1.7259996  -0.0814139   0.4585425  -0.6243734
  -0.1457907   0.0217307  -0.0360009   0.8664915  -0.0884329  -0.0046452
  -0.2501157  -0.1054936  -0.0335563  -0.2274872  -0.3361683   0.1330105
   0.1693727  -0.4176197  -0.4085034   1.0456546  -0.2954906  -0.1234158
   0.0434335  -0.1016136   0.0024912  -0.6703432   0.2771723   1.2033374
  -0.4910481   0.4794013  -0.2584427   0.0370705  -0.1262694  -0.1115673
   0.3542286   0.2575465  -0.0362873  -0.8835633   0.4166691  -1.0694936
   0.1134540  -0.0532943   0.0413650   0.1954551  -0.1962896  -0.3711410
  -0.0212141  -0.0828396   0.1059488  -0.0004875   0.0873771   0.1471671
   1.4541375  -0.6279606   0.0913690   0.7973966   0.6014111   0.1904087
  -0.0422462   0.0146243   0.1076604   0.5431374   0.0658251   0.3456244
   0.4206054   0.1807444   0.2343656  -0.5081364   0.0606505   0.1526410
  -1.4850155  -0.2505378  -0.2868282  -0.1135685   0.2425179  -0.0359294
   0.5073542   0.0431652   0.0544473   1.1332741   0.7000771   0.2100739
  -0.3940847  -1.2939769  -0.1179940   0.2555740  -0.0116509   0.2781718
  -0.0526560  -0.1609155  -0.2087855  -0.2684542   0.0036062   0.5291378
  -0.4115938   0.0169457   0.1652930   0.4114368  -0.7601270   0.4397981
   0.1727300  -0.6550447   0.2984133  -0.0567331  -0.1977882  -0.0154672
  -0.7682767  -1.1581665  -0.3337648  -0.8433999  -0.4912267   0.1635208
  -0.4091945  -0.0758583  -0.4773205  -0.2483292  -0.5121680   0.2093239
  -0.6363178   0.0891066  -0.8497733  -0.0206527   0.0414212   0.4043915
   0.3944785   0.3648216   0.5138531   0.1950493  -0.2708071   0.9208072
   0.0412481  -0.0620375   0.0732392  -0.1095113  -1.1715224   0.2217314
   0.1601534   0.4211807   1.1689462  -0.0720610  -0.0323780  -0.2071583
  -0.0397717   0.2988390  -0.1875422   0.2076382  -0.0715275  -0.1569863
  -0.2049318   0.3728644   0.3134298  -1.1305898   0.0222460  -0.7563894
  -0.1753038   0.1725738   0.1419631   0.0748153   0.1398602  -0.0519920
   0.5113536  -0.2803357   0.7648026   0.5334781  -0.7334417   0.5075125
   0.0089527   0.2686720   0.2060353  -1.2313373  -0.1555200  -0.8570403
   0.1363959   0.3243475   0.1331221   0.1379636  -0.0174342   0.1797240
   0.3768355   0.5391657   0.9607647   0.7758302   0.5733527   0.6946909
   0.3161807  -0.3541497   0.0324461  -0.0383984  -0.4765099   0.1387102
  -0.1957827  -0.4582833   0.3581797  -0.0000504   0.0485911   0.0068399
   0.9452084  -0.4034913   0.2937333  -0.3521240   0.2376735  -0.1701646
  -0.2769270  -0.0742895  -0.1452923  -0.3712375  -0.2529215  -0.2401883
  -0.2108940   0.1731578  -0.1764491   0.2492006   0.4349495   0.1723497
  -0.8677494   0.1133688   0.6920029   1.3254243  -0.2851009   0.6541043
   0.0717987   0.1524586  -0.1999596   0.7568345  -0.0320106  -0.2426547
   0.7804775  -0.6428430  -0.2433552   0.0393696  -0.0798555  -0.2771473
  -0.2760555  -1.1229440   0.9121716   0.1762478   0.9922772   0.6479874
   0.2198216   0.1677678  -0.3839325   1.4195267  -0.7127355  -0.4533190
  -0.4960748   0.1056642  -0.1983374  -0.1837961   0.0835885   0.1087634
   0.4304434  -0.4293124   0.4422417  -0.0604530   0.4417726  -0.0334030
   0.2631674   0.1312363   0.0781350   0.4838120  -0.1417379  -0.1402918
  -1.1718024  -0.3675487   0.8179426  -0.2111738   0.1990943  -0.1019437
   0.0886246   0.9045115   0.1525804  -0.0926551  -0.1501302  -0.3331415
   0.0233821   0.0237559  -0.1359968  -0.3982842   0.7672932  -0.2662614
  -0.1385053  -0.1917389  -0.8837235   0.3794873  -0.1278231   0.0535160
   0.6113877   0.2201201  -0.2991023   0.5782188  -0.7445026  -0.2458611
   0.1021030   0.1758500   0.1228195  -0.3092994  -0.5051357   0.0791621
   0.1479327   0.4451666   0.4774328   0.4136149   0.0964388  -0.0374922
  -0.0073581   0.2765820   0.0781197  -0.8232183   0.3616656   0.4259452
  -0.0130114   0.0009823  -0.0069437  -0.6477010  -0.6211094   0.4045019
  -0.9278345   0.6775698  -1.0397375   0.0342983  -0.1188330   0.1315531
  -0.0974151   0.0379552  -0.1650332  -0.0229786  -0.5460389   0.1030048
  -0.1187992  -0.0009868   0.0050365  -0.5954992   0.4407569   0.4133420
   0.0132714  -0.1048399  -0.0832951  -0.0277027  -0.3149023  -0.0255416
   0.2843407  -0.1133408  -0.0337680   0.8968249  -0.9427911  -0.1760916
   0.1116656  -0.2202720   0.1783426   0.5260372  -0.6465069  -0.2715915
   0.2801257  -0.6275780   0.6089674  -0.7204544   0.0199818  -0.3146856
  -1.0306115  -0.3379198   0.3450292  -0.9444733  -0.6251606  -0.4538112
  -0.0305642   0.1697581  -0.2334442   0.0661326  -0.0942629  -0.0116026
  -0.0431038   0.7516051  -0.0386018   0.1200865   0.0854232   0.1436207
  -1.0912857   0.2097457  -0.7191729   0.4479486  -1.2981748   0.2121964
  -0.2666510  -0.2561563   0.1119219  -0.4535695  -0.7425591   0.1460173
  -0.2071515   0.2816939   0.2449998  -0.1000275  -0.0134286  -0.0980028
  -0.4660801   0.1336103  -0.1202632  -0.4993240   0.5087354  -0.6770895
   0.2286046   0.0955717  -0.2420446   0.7206048  -0.1244945  -0.9291462
   0.1908851  -0.5064100  -0.3022279   0.0833704   0.0385007  -0.2172377
  -0.7779048   0.4162223  -0.1465116  -0.3221911  -0.3456735   0.8665454
  -0.0401137  -0.0366457  -0.2091109  -0.2119516  -0.2958490   0.1746191
   1.7697707   0.3489004   0.2899728   0.3316711  -0.0035062  -0.0829770
  -0.9909199  -0.0947275   0.7803509   1.0640786   1.0001190  -0.0996320
   0.2512515  -0.1473449   0.0587964   0.3176484  -0.5842213   0.3550746
   0.3372262  -0.4865892  -0.2954897   0.1254715  -0.1665833  -0.0845826
  -0.0329155  -0.1028442  -0.9541547  -0.4704682  -0.7902250   2.0497002
  -0.2281022   0.0886923  -0.1858952  -1.0638045   0.0824942  -0.4465921
  -0.3383549  -0.5315787  -0.0084257  -0.2015255  -0.1180816   0.4547588
  -0.1625342   0.2423979   0.4200362  -0.2423636  -0.1985231   0.0445535
   0.0967758  -0.0737096  -0.1119883   0.6033450   0.4931784   0.2815013
  -0.6490318   0.4439049  -0.2198461   0.1082895   0.1316418   0.1376844
   0.1884608   0.1992130   0.3126534   0.0935394   0.2279398   0.4727467
  -0.1852662   0.0902171  -0.0025782  -0.7095739  -0.4543424  -0.3112650
   0.0742377   0.2330642   0.2493812   0.1809213   0.0330587  -0.1076367
   0.1940508  -0.2485043  -0.4847471  -0.6128753  -0.3273890  -1.7258764
   0.0239581  -0.2162478  -0.1292176   0.1508480  -0.3146645  -0.1902996
  -0.9616320   0.1632226   0.8167868  -0.1479441  -0.2678050   0.1231948
   0.3096167   0.6891192   0.6366214  -0.3673129  -0.7508486  -0.1315535
  -0.1464783  -0.1226609  -0.2093357  -0.1089269  -0.1240463  -0.2403169
  -0.7841496  -0.1477803   0.3587659  -0.3853039  -0.0273673   0.0377202
  -0.5900287  -0.4185016   0.2934355  -0.4511052  -1.5483172  -0.7338904
  -0.1728189   0.0430343  -0.1189615  -0.3361924   0.0372612  -0.1482164
  -0.5917911   0.2225413  -0.0037631  -0.0002065   0.2220149   0.1354044
   0.7182227  -0.1615176   0.7213915  -0.1204696  -0.2385180  -1.0062912
   0.2429164   0.2450393  -0.1446404   1.3485810  -0.2271981   1.3270260
   0.9415265   0.5868956  -0.6205273  -0.0781190  -0.4549922   0.1291042
  -0.1086232   0.7502690  -0.4052609   0.0533703   0.5092843  -0.3506732
  -0.0163674   0.2214331  -0.0598145   0.2856545  -0.6924192  -0.1535367
  -0.2931289   1.5196310  -0.1397530  -0.1992863  -0.2109627   0.1026438
   0.4490826   0.0210112   0.1556130   0.7908325  -0.6173271   0.4604622
   0.0827999   0.0787877  -0.2476872  -0.2097321   0.7301578   0.6936050
   0.4056181   0.0387637   0.4579282   0.2039554   0.2056729   0.3865711
   0.2447040   0.1596083   0.5040010  -0.0512421   0.2045160   0.4470579
   0.0277649  -0.1979029   0.0213196   0.5236556  -0.6852495  -0.0450101
  -0.7694121  -0.6063491   0.4181339   0.1312697   0.2401964  -0.2188533
   0.1933212  -0.1078387   0.1306964   0.3283433  -0.0848525  -0.2267458
  -0.2218435   0.1982562   0.2082781  -1.1634226  -0.1321610  -0.0030394
   0.3929957  -0.1675678  -0.2783327  -0.0978985  -0.0894065  -0.3111169
  -0.2024415  -0.0787391  -0.1395540   0.4523791   0.7847456  -0.0605450
   0.1354588   0.0482401   0.0981123  -0.0099440   0.0217895  -0.3949453
   0.2761159   0.3483638   0.1379129  -0.0270879  -0.2569914   0.1909615
  -0.2369206  -0.1799574  -0.6502663   0.1624404   1.1265138  -0.7920001
   0.0883787  -0.2298669  -0.0496672  -0.1085889   0.0273977  -0.5210809
   0.3732971  -0.5485895   0.5633904   0.3165008   0.2346526  -0.3484165
   0.7424019   0.6870623   0.1224214   1.5437308  -0.1639164   0.3837788
   0.0578412  -0.0868490   0.0731546  -0.5001009   1.5223400   0.9274728
   1.3448888  -0.1619381  -0.2881978   0.0414415  -0.2130155  -0.1562416
  -0.3385194  -0.3481811  -1.5608576   0.4592063  -0.0331638   0.7692101
  -0.0958832   0.0376626   0.3658336   0.2122869  -1.0965802  -0.2670267
  -0.7193195  -0.7592500   0.6670997   0.0111784   0.1281840  -0.4233741
   0.0052218   0.6486570   0.0537738  -0.2254401  -0.1814899  -0.9414743
  -0.2458505  -0.1641706  -0.2715941  -1.0781273   0.1744560  -0.0124740
   0.3761736  -0.3055476  -0.1484113   0.3343841  -0.2232967  -0.1853499
   0.3597924  -0.1306969  -0.1075002   0.1010377  -0.2507872   0.5188850
   0.0394628   0.3003964  -0.0255133   0.7128410   0.6465798  -0.5877145
  -0.0297237  -1.0967683  -0.8480430  -0.0752172   0.0110235   0.1317220
  -0.0763594  -0.0131083  -0.0212696  -0.4054663  -0.1180067   0.2549765
   0.0895648  -0.0635532   0.0242315  -0.2501999  -0.2183123   0.0611133
   0.0735874   0.1188045  -0.2961012   0.0233506   0.0323609  -0.1747489
  -0.2024755   0.4290082  -0.1974113   1.4636032  -0.8125198   0.6403947
   0.0374343  -0.0644984   0.2249148   0.3319014  -0.3853401   0.0865727
  -0.6837476   0.9102266   0.4750949  -0.1218823  -0.0361793   0.0070321
  -0.0884664  -0.5741299  -0.2741260  -0.8192576   0.1645586  -0.3184416
   0.2135712  -0.0995409   0.0891861  -0.3167837  -0.5152975  -0.1315576
   0.7249376   0.0050596  -0.3749685  -0.0723888  -0.1965732   0.0422415
   0.6811138  -0.6994087   1.6051522   0.0714992  -0.8812461  -0.2399063
   0.0493352  -0.0522920  -0.2233401   0.3964694  -0.4309843   0.3915974
   0.6984523   0.0555839  -0.2970703   0.2109536  -0.1217627  -0.0651912
  -0.4806993  -0.6435291   0.6519243  -0.0700899   0.6469658   0.1179890
  -0.2267429   0.2399755  -0.0573100   0.1531304   0.0950696  -0.2718005
   0.0450963   1.6007432  -1.4416195   0.2241738  -0.1521353  -0.1736882
   1.0215265   0.7426758  -0.3686282  -0.8107499  -0.3161648  -0.0949984
   0.1870627   0.0050636  -0.2224169  -0.1700233  -0.1841003   0.0738232
  -0.4762870  -1.3908942   1.0243865   0.0857163   0.1254623  -0.0124502
   0.1797680  -0.3300193   0.5258666   0.0605459   1.0523099   0.1342020
   0.2693788  -0.0388729  -0.3500862   0.3781191  -0.5507725  -0.2733125
   0.0475820   0.7396091  -0.3619217  -0.0821763  -0.1575510  -0.0443722
   0.2300989  -1.6331048   0.3840639   0.9944740  -1.0868088  -0.6073796
  -0.2738951   0.1414662  -0.4979251  -0.2036921   0.5611605  -0.1035513
  -0.0209591   0.2239111  -0.7079930   0.0097773  -0.0706337   0.1644923
  -0.5750471  -0.7217190   0.8422412   0.9830551   0.8378576  -0.5746867
  -0.0031628   0.0145045  -0.1517123   0.4789473   0.1119983  -1.3624282
  -0.3904964   0.9439608  -0.2258445   0.2372141  -0.1590712  -0.2797330
  -0.0204471   0.7206107  -0.9662874  -0.3315343  -0.3459241  -0.2205385
  -0.3841237   0.0359806  -0.2482698   0.1929734  -0.4905674  -0.6457465
  -0.5342664  -0.5994807   0.1789067   0.2277131   0.3926514  -0.0328828
   0.6402175   0.4348357   0.3187566  -0.1204699  -0.0385721  -0.3764834
  -0.1388356   0.0645542   0.2232697  -0.4642968   0.1747961  -0.0815160
   0.7602068  -0.3666387   0.0888026  -0.0328637  -0.4185134  -0.2701042
  -0.3615936   0.0000234  -0.2336653   0.4039512  -0.4253137   0.3096000
  -0.2122116  -0.0216750   0.1273186   0.0930001   0.1129647   0.2599720
  -0.2411338  -1.1156059  -0.1579695  -0.1178502   0.0759358  -0.0161272
   1.5544074  -0.8731996  -1.0449048   1.2761538  -0.1911610  -0.6463511
   0.3917885  -0.4066768  -0.3168854   0.7158604  -0.3607911   0.1267398
  -0.2357958   0.3949044  -0.0802594   0.1333534  -0.1193159  -0.4361263
   0.1579843  -0.6240530  -1.2762604   0.1948150  -1.3413677  -0.2785803
   0.5007113   0.3784942  -0.2553493   0.2033205   0.3190501   0.1937840
  -0.0504751  -0.7344030  -0.8564276   0.1366354  -0.3912847  -0.0918471
   0.0297594  -0.5275978  -0.3281070   0.0633488  -0.0046553  -0.1656656
   0.1703268  -0.0088159   0.1481893  -0.9052458  -0.1264497   0.2092269
   0.2169384   0.0825616  -0.0247363   0.1706284   0.2111852   0.0629760
   0.2051953   0.0729585   0.1662580   0.2191030   0.9529645   0.2062828
   0.0256639   0.0751609  -0.0243528  -0.7007428   0.3542542  -0.3507647
  -0.2153109  -0.4807536  -0.4207324   0.3171797  -0.2576003  -0.1411800
   1.0140826  -1.5504826  -0.6235644   0.3583040  -0.2454342  -0.2155060
   0.0093091   0.2072059  -0.1778925   0.8525100  -0.2391904   1.2886891
  -0.2683322  -0.2286605  -0.1129122   0.1405793   0.0338211   0.2541353
   0.0674614   0.1415467   0.3013338   0.1482349   0.0088199   0.3295677
   0.0922896   0.1157108  -0.0561885   0.1265633  -0.1997438   0.4378457
   0.0616481   0.3159363  -0.1963444  -0.0523420   0.0049321  -0.0049487
   0.4340754  -0.3193199  -0.8458650  -0.0337779   0.9717147  -0.1276631
   0.0131598  -0.1141279   0.3631191  -0.1264843   0.4659089  -0.3680165
   0.9604576   0.0004470   0.7804680  -0.0884062  -0.0596470  -0.0773583
   0.0647172  -0.3725320   0.8825541   0.3826786   0.4156534   0.2597880
   0.1053565   0.1389656  -0.2163082  -1.7702277   0.2837949   0.7801836
   0.9763110   0.0730461  -0.6330463  -0.3332036   0.0024881  -0.1445058
  -0.9681919  -0.8455792   0.7201433  -0.1766335  -0.0609591  -0.6323951
  -0.1939532  -0.0127274  -0.2995570  -0.8257752  -0.3406256  -0.5129912
   0.0182370  -0.0481845   0.2490954  -0.1486958   0.0411863   0.1290259
   1.2084601  -0.6417023  -0.1304643  -0.6290155   1.2057382   0.8513395
  -0.0910197  -0.1062735   0.2649937  -0.0071277  -0.1556814   0.0772302
  -0.4836749   0.4359781   0.7542658  -0.0945446  -0.0889733   0.1249949
  -0.0616006  -0.0444703   0.0462074   0.0129369  -0.2332847   0.1792682
  -0.1427200   0.1752448   0.1083716  -1.0482918  -0.2286395   0.2181805
   0.0068934   0.2708557  -0.9375642   0.0291701   0.2888024   0.1613745
   0.1241850   0.4523064   0.1960360  -0.1605305   0.4900176   0.0263899
  -0.1568985  -0.0771548   0.2972017  -0.4712443  -0.3140477  -0.6100980
  -1.0842196  -1.0333430  -1.4624858  -0.1839464  -0.0446602   0.0298350
   0.1906169  -0.3369019   0.3741403   0.7199815  -0.6398732  -0.6903211
  -0.0506193  -0.1055535   0.0103855   0.3959457  -1.0839346   0.5572554
  -0.5020801   0.9060735  -0.6400726   0.1141001   0.0643678   0.0274552
   0.5141483   0.1290522  -0.0111398  -0.6894046  -0.0665035   0.1485296
   0.1669603   0.0523724  -0.2387994   0.4132223   0.1286549  -0.7277876
  -0.3731236  -0.8075001   0.5501906   0.3120950  -0.0371147  -0.1857165
   0.2137771  -0.2523976  -0.1509792   1.4671923   0.0776867   1.3406242
   0.2490774  -0.1219691   0.0623179   0.3920890   0.4066122   0.2119209
   0.3686052   0.4149531   0.2046270  -0.4892136   0.1105559  -0.1081719
  -0.7304227   1.6927643  -0.8041460  -0.4111181  -1.2694153   0.1055358
  -0.0806159  -0.2132047  -0.1321063  -0.0025619  -0.2997254  -0.0639495
  -0.4236338   0.2400888  -0.4692316  -0.2568832  -0.0150617   0.1744686
  -0.5637216   1.2260610  -0.5705465   0.1698289   0.4627417   0.5756898
  -0.0784164  -0.0699583  -0.3171294  -0.5960276   0.6819341  -0.7974181
   0.6368003   0.0634526   0.6632694   0.2448876  -0.0444325   0.1685829
  -0.6221692  -1.5382978  -0.2407142  -0.2258517  -0.9159964   0.0222565
  -0.2393787  -0.1931004  -0.0023251   0.0438521  -0.1539522  -0.1754513
  -0.0830838  -0.4382639   0.1923389  -0.2669949  -0.1972487   0.1573590
   0.3849361  -0.4003206  -0.6865133  -0.5677211  -0.9540903   0.0367503
   0.0704044  -0.3091247  -0.0354014  -0.5361849   0.0500720  -0.0271174
   0.0935363   0.1568326   0.1960089  -0.1909879   0.2000341   0.1664674
   0.8643455   0.8946384   0.6180803   1.3675105  -0.4256306   0.2208133
  -0.0222817   0.0521431   0.1411998   0.0925003   0.0793574   0.4187839
  -0.2279000  -0.2013087   0.1497957   0.0398671  -0.0581280   0.1235039
   0.5377268   0.8128695   0.2576364  -1.1313120  -0.9000704  -0.4039738
  -0.1436927  -0.3113946  -0.0439845  -0.4762642   0.2790143  -0.2237790
   0.5817945  -0.0692556  -0.7089108  -0.2442989   0.0225671  -0.0183885
   0.1505142  -1.1514613   2.0604738  -0.2079547  -0.1340986   0.7855611
   0.1365353   0.1974142  -0.4214539  -1.0626914   0.5928340  -0.8056099
   0.9674049  -0.0828817  -0.0315332   0.3374506   0.1806725  -0.1259404
   0.5608701   0.1974863  -0.7875650  -0.0743631   0.3924320  -0.0776977
  -0.0291640  -0.5282777   0.1649372  -1.3126899   0.0512791   0.3782685
   0.1018083   0.1101657  -0.8429812  -0.0843615  -0.0135250  -0.1539210
  -0.8519255  -0.2063057   0.1161312   0.9363870   0.5003820   1.1082748
   0.1736912  -0.3188925   0.1210182   0.5419512   0.1571984   0.4295155
   0.4439979   0.1496558   0.2301484  -0.1748490   0.1043482   0.3528022
  -0.0639899  -0.0046884   0.6028287  -0.0552322   0.1629178   0.3925709
  -0.0408790  -0.3009042  -0.2155899   0.5659470   0.5126851  -0.7316063
  -0.2602499   0.3329682  -0.1692901   0.3637659   0.0478526   0.0499735
   0.6720383  -0.8082473  -0.2240475   0.2013216   0.2592066   0.5196576
   0.0605349  -0.2565940  -0.1656264  -0.1151505   0.0978407   0.5010625
   0.5689713  -0.1156579  -0.1718896   0.1019477  -0.2187000  -0.1904789
  -0.0785620  -0.8685199   1.1277038   0.3100004  -0.2238710  -0.1005131
   0.4408355   0.4455403   0.3221085  -0.0967817   0.4319894   0.7886986
   0.2543268   0.6520147   0.0451554  -0.1096913  -0.1176462   0.0439814
  -0.1893811  -0.4530193   0.1872780  -0.1523311  -0.0784957   0.0856508
   0.4648045   0.0394254  -0.3119908   0.5049539   0.3626723   0.4993220
  -0.0019096  -0.6925432  -0.2314964  -0.1468209  -0.1197961  -0.2203013
  -0.7773266   0.0502119   0.4888999  -0.4448483  -0.0831851   0.0294419
  -0.3868821   0.0000556   0.3550873   0.1473256  -0.8004879   0.8044205
  -0.0835096   0.6679000  -0.2686910  -0.1965301   0.4883311   0.0916390
  -0.2904286   0.0543416  -0.1285011   0.5638773  -1.3245092   1.4931716
  -0.1400368  -0.1365006   0.2698749   0.9027021   0.8791758   0.6674847
  -0.2403814  -0.1631166   0.2365566  -0.0659634   0.0493876  -0.0818823
  -0.9154336  -0.4629945  -0.3216126   0.3321821  -0.9122337  -0.8738619
  -0.1295359  -0.0994511  -0.0432058  -0.4304990   0.1144826  -0.8019522
  -0.1700433   0.0354623  -0.2840516  -0.1710575  -0.3537911  -0.0617594
   0.0481899  -0.1511673   0.0069484   0.0234867  -0.8769490   1.3157870
   0.4064824  -0.0597963   0.0320144   0.0136981   0.2167058   0.0009503
   0.0480334   0.1250130   0.1263004   0.1446222   0.1378297   0.0483242
  -0.3564991  -0.6335660  -0.5975957   0.2668808   0.1650091   0.2697335
  -0.0219468   0.1170143  -0.1035180   0.8383222   0.1344279   0.1429787
   0.0865332   0.5063231  -0.2713667   0.1366767  -0.0313806   0.2050161
  -0.1134305   0.0735491  -0.0928662   0.2707916   0.1971932  -0.1263581
  -0.0510101  -0.1144735   0.4885663   0.0835229   0.2663852   0.3255833
   0.6437252  -0.1729237   0.1606596   0.3568276   0.3644462  -0.1116637
  -0.2214171   0.4475318  -0.0847357  -0.6007078   0.4740228   0.1865047
  -0.2116748  -0.2174653   0.1000498  -0.3594200  -0.4788288   0.2572497
  -0.5875000   0.0914577  -1.0055873  -0.2113704  -0.0048383  -0.0952350
  -0.5286894  -0.2355329  -0.3875518  -0.1501861  -0.4838066  -0.3997271
   0.0861154  -0.2420420  -0.1200237  -0.9535240  -0.0847756  -0.6209327
  -0.4223196  -2.2556225  -0.2569495  -0.0066143  -0.0455778   0.1471467
  -0.6514837  -0.0619716   0.2652826   0.4391465  -0.4385560   1.3698949
   0.0323770   0.1351683   0.3736727  -0.6362563  -0.2202997   0.4701520
   0.0401078  -0.1138019   0.4062097   0.4965585  -0.2034410  -0.2494536
   0.9891634  -1.4646230  -0.2702283  -1.1616697   0.2317982  -0.7043944
   0.0877306   0.0804373   0.1849916  -0.7260369  -0.1016141   0.3815510
   1.2950846   0.6600181   0.0692696  -0.3345089   0.3085532   0.2047312
  -0.2413399   0.5127267   0.0720406  -0.1065289   0.2215897   0.3906569
  -0.3170975   0.0963810   0.2343125   0.7025403  -0.3816490   0.3112963
   0.3327302  -0.2069093  -0.1157975   0.1715445   0.1022459   0.1382661
   0.3492780  -0.0112440   0.2838317   0.1444733   0.0629726   0.0755613
  -0.2686594   0.1890071  -0.2733360  -1.2033843  -0.0799589  -0.4909510
   0.2821236   0.2979226   0.0244623   0.1003986  -0.0700947   0.1769386
  -0.5099251   0.1379306  -0.7362280  -0.9625481   0.0241331   0.8930628
   0.1179298   0.1325012   0.2100654   0.4077309   0.2762512  -0.4714758
   0.9195953   0.6040170   0.2299864   0.2351700  -0.0700689  -0.0200459
   0.2410609  -0.2644748  -0.3020703   0.7306916   0.2900338  -0.3708056
  -0.0595591   0.0115196   0.0996993  -0.1469215   0.2035598  -0.3173822
  -0.1707679   1.0052798  -0.1107690   0.0734161  -0.0444005   0.2663623
   0.2400725   0.0335298   0.0836363  -0.0287361  -0.0741117   0.3857861
   0.0571504  -0.3344732  -0.1827753   0.4601169   0.9147325   1.0808634
  -0.9128610  -1.2666051  -0.2010953  -0.0527153  -0.0279349  -0.0927596
  -1.1649432   0.2853417  -0.7815461  -0.4104507   0.1508346  -0.2388549
  -0.0895542   0.0942099   0.3797380   1.0724031   0.4438080   0.0080838
   2.3384511   1.6396659   0.8146194   0.0266426   0.3737481  -0.1506206
  -1.1377878   0.1892507   0.8520865   0.7316817  -0.2722166  -0.2319304
   0.3576356   0.1314657   0.1655975   0.7293477   0.3876964   0.5788313
  -0.0608125  -0.2277048  -0.3020652   0.2847184   0.0215208  -0.0339221
   0.8296731  -0.4216065  -0.8216578  -0.1215711   0.0057194  -0.0062012
  -0.0423329  -0.1087823  -0.3415812  -0.3684138  -0.0282014  -1.3752938
  -1.1756506   0.0412242  -0.3324359  -0.1228901  -0.3997485   0.4747113
  -0.2002549   0.4576312   0.3594007  -0.1082939   0.2013006  -0.0027835
  -0.0386993   0.1739710  -0.0170826  -0.0387421  -0.3141164  -0.3155802
   0.6117937   0.5441984  -0.9193006  -0.1094187   0.0083468   0.1377394
   0.2323413   0.5996383  -0.0786822  -0.2826087   0.6776238   0.4025475
  -0.3310164  -0.1756183  -0.2820306  -0.3715100  -0.2795677   0.1438014
   0.3110997  -0.6028414  -0.9151808   0.0584467   0.2667940   0.1369164
  -0.4419862   0.4691609  -0.3377703   0.9124736   0.1703604   0.4351695
   0.1206372   0.3946956  -0.1927276   0.1632864   1.0157688  -0.1080317
  -1.0589998   0.3648585  -0.2634762   0.3783421   0.0367665  -0.1368903
  -0.0563942   0.9648370  -0.8029971   0.0158700  -0.6190222  -0.7400765
   0.1357325  -0.3729214  -0.0303063   0.2780668   0.8387869   0.3199148
   0.3781528   0.5011453   0.7050081  -0.0142265  -0.0457428  -0.2103056
  -0.2859997  -0.1121449   0.4729093   0.4430388  -0.4068415  -0.7458704
   0.0804247  -0.4450380   0.0261215   0.5782719  -0.5426371   0.1927258
   0.0172681   0.0110531   0.3986769   0.0118155  -0.0560323  -0.0971967
  -0.1255612  -0.5209956  -0.7267299  -0.4280850   0.6341206  -0.2266043
  -0.3173320  -0.0611575  -0.1005837   0.7352818  -0.5419131  -0.8963169
   0.5767940   0.8465482  -0.2253827   0.0664029  -0.3072317   0.0481446
   0.2228390  -0.2557306   0.3222263   0.2698518  -0.0393686   0.0864145
   0.1306057  -0.3072690  -0.2012734   0.1418939   0.0435578  -0.2135210
   0.0948137  -1.1574323   0.5893530   0.5972517   0.0245066   0.3511980
   1.0977608  -0.6838947   0.9017987  -0.0878119   0.0230192  -0.4256718
   0.1419949  -0.1577112  -0.2988459  -0.0277246  -0.1447037   0.4570858
  -0.1451804  -0.7959925  -0.8645175   0.0578162  -0.4102965  -0.2543047
  -0.5839977  -0.8544646  -0.6319603  -0.0849157  -0.3929603   0.6303595
   0.0114701  -0.0201880   0.1663029  -0.1618390   0.4388965   0.6061936
   0.4256754   0.3911187  -0.2886072  -0.0039121  -0.0060429  -0.2178046
   1.0308083  -1.0390426  -0.3904358   1.2482848  -1.2906608  -0.4331501
   0.2303467  -0.0847613  -0.1038152   0.6794333  -0.7107474  -0.4641468
   0.6597427   0.2442617   0.5026800  -0.4740449  -0.1180507  -0.1921155
  -1.0246130   0.1565591  -0.2998430  -0.6685791  -0.4868596   0.1541389
  -0.3664307   0.0142851  -0.4124541  -0.0737136  -0.0148750   0.1337647
  -0.8674584  -0.3141531  -0.2822339  -0.3544001  -0.2585279  -0.0888273
  -0.2276608   0.8113242  -0.0432489  -0.0045950  -0.2964735  -0.0572994
  -0.2785302   0.1033472  -0.3531271   0.9669475   0.9173652  -0.0950539
  -0.8937124  -0.8327973  -0.7388658   0.3019151  -0.1535964  -0.0565542
   0.7927556  -0.2011079   0.0928444   1.1513583  -0.5169285  -0.4039226
   0.0909979   0.1224667  -0.0740350   0.8401981  -0.0951610   0.0100108
  -0.3702302  -0.0538513   0.6790540  -0.0903798  -0.0913078  -0.2607665
   0.6948414   0.3398550  -0.4772521  -0.0377619   1.2777628   0.6200708
   0.3262591  -0.2208472   0.0321458  -0.3839189  -0.8994164   0.1738039
  -0.3626464   0.0391059  -0.2673957   0.1915906  -0.2515927   0.0556119
   0.3526491  -0.9809333   0.1724070   0.7666032   0.0740293  -0.7894263
  -0.0660478   0.0490413  -0.0405760  -0.1838684  -0.5175320  -0.2083453
  -0.2166522  -0.3190246  -0.7162451   0.0444534  -0.1125653  -0.0450330
  -0.1771546  -0.2193232   0.3220575  -0.5049387   0.1735727  -0.7395826
   0.2777115  -0.1396876   0.1265515   0.3770556   0.7648528  -1.8406928
   0.0562293  -1.0907800  -0.1815706   0.0346396  -0.3394143  -0.2024085
   0.6059574  -0.6934343  -0.4559567   0.7478589  -0.6983492  -0.5501072
  -0.1724073   0.1641480   0.1306470   0.1590898   0.4198195  -0.1032094
   0.1682583   0.2299014  -0.3180486  -0.1694991  -0.2539653  -0.2099336
  -0.3806324  -0.5524667  -0.2373781  -0.1229185   0.5103979   0.4388215
  -0.3354096   0.0908543   0.0242263  -0.7679798   0.1272161  -0.0522634
  -0.5743542  -0.7493568   0.5216571   0.1102623   0.0890799   0.1840735
   0.0259558  -0.0877734   0.8099977   0.3858665   0.5739558  -1.5400341
   0.3287008  -0.0129868   0.4454477   0.2093748  -0.5503779   0.1381134
   0.8838360  -0.1630339   0.6384001  -0.1293445   0.2287119  -0.0875902
  -0.5008234   0.1995861   0.0676021  -0.3751656   0.1502123   0.5150996
   0.0398807   0.1402890   0.0540059   0.1320806  -0.7737073   0.8503633
   1.1454667   1.0845233  -1.5648467  -0.3041117  -0.4103703  -0.0646566
  -0.3116298  -0.7118569   0.1167964  -0.3413855   0.1390494  -0.2626048
   0.1674225  -0.0652319   0.2382815  -0.0418786   0.0285788   0.3482321
   0.1397600   0.9253598   0.5454796   0.1217258  -0.0509157  -0.1904405
   0.1780628   0.6753210  -0.5110872   0.2559575  -0.3090740  -0.1163410
  -0.0549898  -0.0784410   0.1687902  -0.3742057  -0.2135666   0.2409247
   0.0727483  -0.1821903   0.1204894  -0.0938502   0.2517422   0.1678571
  -0.1714799  -0.6893367  -0.0781173  -0.1419932   0.1903441   0.9827667
   0.2339304  -0.0207439  -0.3342264  -0.1928107   0.5990693   0.9983395
   0.0489258   0.4987038   0.2515029   0.1411983  -0.0608460  -0.0248478
   0.8565830   0.7556947   0.1773081   0.6225773   0.5339160   0.3864176
   0.2546701  -0.0342921   0.1523897   0.1291678  -0.0729911   0.6568651
   0.3092760   0.6109390  -0.0100807   0.1090821   0.0447326   0.0515116
   0.3866000   0.2530195  -0.0785369   0.1746691  -0.2136460   0.3886848
  -0.2942988   0.2883324   0.1880746  -0.5784216  -0.5905573   0.6438270
  -0.7291632  -0.7108273  -0.7183390   0.2060535  -0.0465618   0.1645147
   0.5239645  -0.4949938  -0.5179573   0.5523163  -0.5665802  -1.2652574
   0.2168696   0.1371734   0.1192826  -0.3186493  -0.0356270  -1.0376650
  -0.6597567   0.1229687   0.4749781   0.2371046  -0.1130251   0.0521198
  -0.8649514   0.2018499   0.2519038  -0.0057811  -0.1076991  -0.0580921
   0.1771966   0.0074605  -0.0213511  -0.6024342  -0.4845877   0.1320081
   0.7484123   0.2738161  -0.1156068   0.0571975   0.0259929  -0.3777981
   0.4499688   0.1913063  -0.1022856  -0.6463394  -0.0906285  -0.2618130
   0.2045542   0.1902850  -0.2010536   0.5789492  -0.2839883  -0.1502205
   0.1674713   0.4517650  -0.3425679   0.2004732  -0.0494603   0.1724323
  -0.4681616  -0.2149665  -0.3617018   0.2439042  -0.7679537   0.7520820
   0.0251959   0.3073066  -0.1067209   0.4255297   0.6645500  -0.8003163
   0.3492352   0.1624841   0.2304712   0.3660268   0.0140568  -0.0514846
   0.4708565  -0.2687536   0.2733472  -0.3965361  -0.7836581   0.7735194
  -0.1342081  -0.0668162   0.0384180  -0.2437227  -0.5574084   0.0157520
   1.7945081  -1.1334328   0.3071847  -0.0288195   0.0839701   0.2557555
   0.9190723  -0.4251180   0.1738757  -0.7705843   0.6679804   0.2268559
   0.1198081  -0.1682871  -0.0566791   0.8416631  -1.7160587  -0.5184481
   1.0384790   0.2424726   1.0475505   0.1583114   0.0382546  -0.2153009
   0.0935141   0.3263161   0.0558171  -0.2865990  -0.1190907  -0.2218629
  -0.1729836  -0.0129584   0.1674423   0.2066613  -0.2059620   0.1922920
   1.0465699   0.0262364  -0.2247543  -0.2130899   0.1450088  -0.2390929
  -0.0532302   0.2028219  -0.4433196   0.7374268   0.2186349  -0.2683686
  -0.0396069   0.0156546   0.2437993   0.6756209  -0.8066152  -0.1131955
  -0.5576725   0.7298121   0.4443697   0.0643241   0.1264280   0.0182607
   0.0721776  -0.1947870  -0.0509430   0.0365646   0.1782783   0.3095612
   0.1207647   0.1687422  -0.1016577   0.2109106   0.4005239   0.6188445
  -0.3086437   0.2532584  -0.1211994  -0.1077970  -0.2337544   0.2164221
   0.3633876   0.4378490   0.6665499   0.0619738  -1.0287039   0.1011029
   0.1347432  -0.1747842  -0.2319572  -0.4843561   0.6067254   1.3353255
   0.5708597  -0.4497730  -0.4494016  -0.1029091  -0.3083028  -0.0163108
  -0.2249656  -0.2409293  -0.2144589   0.1661752  -0.2951722  -0.3064911
  -0.1063304  -0.0539911   0.0826629  -1.0774507  -0.3843312   1.7959056
  -0.1769931  -1.2040287   0.2240099   0.0049567  -0.0519542  -0.1877911
   0.4883538   1.5289778  -0.3941477  -0.5835760  -0.5083351  -0.5156545
   0.2043078   0.1472978  -0.2287457   0.4281526   0.3006899   0.6737186
   0.0853545   0.8920213   1.1398423   0.0502279   0.2101388   0.0119049
   0.1927387   0.2589807   0.1782894  -0.1552410   0.2374498   0.1109264
  -0.2990019  -0.1278657  -0.1086087  -0.1676603  -1.0404739  -0.0228183
  -0.2462379  -0.1074512  -0.9683395  -0.3111512   0.0922023  -0.0025989
  -0.0333231   0.0662299   0.1904132   1.2775271   0.2636550   0.7189734
  -0.0171688   0.1108373  -0.0371174   0.3064734  -0.3257857  -0.2892018
  -0.9772092  -0.6265623  -0.3367487  -0.0510069  -0.2519165  -0.0819683
   0.3090589   0.2941522  -1.2433077   0.5120361  -0.1780324  -0.1690787
   0.0786692  -0.0901917   0.2106522   0.4671180  -0.0702861   0.3198038
   0.9231120   0.4373128  -0.1644621   0.0515643   0.0319991  -0.0464762
   0.0459523  -0.1840991   0.2356230  -0.2569439  -0.6175900  -0.4499423
   0.2516033   0.2134490  -0.0191303   0.2162154  -1.1560942  -0.1592909
  -0.9435319   0.6718034   0.8779894  -0.0823025  -0.0167327   0.2190315
   0.3085784  -0.6762352   0.4524729   0.0254512  -0.2822646   0.2868644
  -0.0921993  -0.0434289   0.1003493   0.0649105  -1.2237075   0.4521725
  -0.3162474   0.4101946  -0.1623514   0.2527413  -0.2242677  -0.0093805
   0.2920858  -0.1516345   0.2953714   0.4589813  -0.1746300   0.0264714
   0.0599403   0.0294273  -0.1264911  -1.6745906   0.3740988   1.1988437
   0.1968370  -0.0032733  -0.2401828   0.2703870  -0.2775908   0.0448075
   0.6771656  -0.2855358   0.2395365   0.0727501  -1.2265198   0.2423886
   0.3090325  -0.2113798   0.0238147   0.4266277  -0.3545664  -0.1554127
   0.0437249   0.5921647  -0.9497745   0.1514970  -0.1882934  -0.1055591
  -0.1995110   0.2136096  -1.0939737  -0.6108660  -0.3304388  -0.9836762
   0.1073417  -0.0013174   0.1435137   0.4183854   0.0009578  -0.4937940
   0.1164224   0.6405280   0.8245341   0.1509364   0.0518524   0.2466294
   0.7487042   0.0172664   0.4140642  -0.3489742  -0.5348973   1.0059973
  -0.0396272   0.1624590  -0.1748780  -0.4832011   0.2134460   0.3195905
   0.5514181   0.1834128   0.1037011  -0.2288921  -0.1092498   0.0656009
   0.1923839  -0.4564208   0.5462845   0.7192202   0.1324985  -1.3152919
   0.1311745   0.0389690  -0.3426646  -0.4808864   0.0912770  -0.3815872
  -0.7499089   0.1079736  -0.3919983   0.0387167  -0.2100823  -0.2339870
  -0.6234047   0.3167999   0.3234509  -0.0961856   0.5835461  -0.2711261
   0.4670534  -0.0975476  -0.0773917   0.3463946  -0.1684034   0.1622509
   0.7351085  -0.1615605  -0.0441034   0.2426132  -0.2006497   0.1955656
   0.5386718  -0.7633696  -0.4802083   0.1988646  -0.5169458   0.0770569
  -0.0395648  -0.2319334   0.3432604  -0.4817920   0.6337811  -0.5415377
   0.3042732   0.5275079   0.7856626  -0.0076839  -0.0579274   0.0676712
  -0.1124199   0.0896256   0.1698418   0.2882418  -0.0592890   0.5240604
   0.0389209  -0.0990517   0.3481557  -0.1339427   0.4075683   0.2858121
   0.0914313   0.8100815  -0.1136719   0.0612607   0.1385616  -0.0322013
   0.0995568   0.6295120   1.5706443   0.3436779   1.5340081  -0.9051723
   0.0821535   0.0906553   0.0867314  -0.2555966   0.0636911  -0.5544732
   0.3605001   0.0299209   0.6052134   0.0049103   0.0411358   0.0306326
   0.5789071  -0.3627919   0.4317076   0.1578362   0.0020996   0.2778953
  -0.3416212  -0.2606505  -0.1243409  -1.1333842  -0.7619589  -0.0435443
   0.5644063   0.8706154  -0.4701136  -0.2471699   0.2016756  -0.2220728
   0.1697838  -0.1807037  -0.5965443   0.2983744   0.4573979   0.2237309
  -0.0788513  -0.1748509   0.5992352   0.0112094   1.9706588   0.1752734
  -0.4879235   0.3675417  -0.1641345   0.1408937  -0.3790479  -0.0094162
   0.2016686  -0.7513835  -0.0004907  -0.4695623  -0.3895406   0.0068732
   0.1075600  -0.2512474   0.1446770   0.7929923   0.0525817  -0.3441000
   0.8554205   0.3801245   1.4159097   0.1189724  -0.0532523  -0.1646247
  -0.6955269   0.3313758  -0.7246708   0.2856325  -0.0238318  -0.2492144
  -0.0484607   0.1335775   0.0317640  -0.7777362  -1.5210384   0.7479457
   0.5036296   0.8334355  -1.5480899   0.2475896  -0.1059561   0.0470977
   0.2036737   0.5405329   0.7775429   0.2798966   0.0706587   0.2168454
  -0.0098075   0.0873947  -0.0505230   0.4164839   0.7319859  -0.2123344
   0.4882472  -0.4000488  -0.2737508  -0.1267163  -0.1651066   0.2427759
   1.3317093  -0.1854690  -0.3930673  -0.4430684   1.2129257  -0.1538707
   0.0219603   0.0989191   0.1921191   0.5813467   0.0238578   0.0484516
  -0.8914580   0.2317755  -0.0839317  -0.1815408   0.1577428   0.2951303
  -0.8883817   0.4081239   0.1084516   0.3159241   0.6714073   1.1472809
  -0.2809109  -0.2805817  -0.2858752  -0.5492836   0.1400640  -0.3542784
   0.2757848  -0.1824123  -0.3014627   0.2394544  -0.1690469   0.4897071
   0.4538965  -0.0101602   1.1493668   0.5914153   0.9214811   0.7223418
  -0.1552562  -0.1178133  -0.1460653   0.3145244   0.8128371  -1.0117190
  -0.5301759  -0.8342981  -0.0209164   0.1185919  -0.0013866   0.1756444
  -0.0790957  -1.0794166   0.3977503   0.2608937  -0.4878263   0.2812952
  -0.0521202  -0.1993698   0.1282586  -0.1103334   0.7345666  -0.9373113
  -0.2790987   1.1748658  -1.0593465  -0.2392140  -0.1383439  -0.0704297
  -0.6448274  -0.1161593  -0.0058547  -0.3766100  -0.4574730   0.5244234
  -0.3331010  -0.1535949  -0.1743966  -0.8817345   0.0011227  -0.9385005
   0.3370059  -0.3674451  -0.3341344   0.3270310   0.2111740   0.2719200
   0.1863080   0.2409763   0.2896108   0.3308231   0.0763559   0.2009093
  -0.2756312  -0.0148569   0.0130513  -0.2577931  -0.3822753   0.3516126
  -0.6272194   0.5462689   0.1411759   0.0958677  -0.0263269  -0.0133682
   0.6268292  -1.0372537  -1.1532061   0.4652546  -0.3312475  -0.2620226
   0.0303646   0.0464821  -0.0093113  -0.3232840   0.9308315   0.3454177
   0.1800129  -0.3495033  -0.1730679   0.0240272  -0.0771510  -0.1898853
  -0.4023163   0.5561821  -0.1649756  -0.2321229  -0.3490950  -0.4611901
   0.1358063   0.1021583   0.1625921  -0.4000831   0.3176616  -0.8355088
  -0.1945646   0.2350946  -0.4011201   0.1307041   0.6064076  -0.2611989
   0.3186531   0.3279275  -0.6725694   0.3338341  -0.0944065  -0.6688014
   0.2137193   0.2149644   0.0420323  -0.1139566  -0.1153618  -0.2556780
   0.3138057  -0.0252696   0.0201904   0.1420581  -0.3159817   0.4449824
  -0.5137671  -0.5399847   0.3902035  -0.4169388  -0.4503481   1.0897609
   0.1234362  -0.2809148  -0.1764408  -0.0329210   0.0801611  -0.0509407
   0.2041096  -0.4516339  -0.3125008   0.3705898   0.1626083  -0.1575013
  -0.9021113  -0.3275397  -0.3553053  -0.4269031   0.4121805   0.2170629
  -0.2899518   0.0519115   0.4282331   0.2838326  -0.1650062   0.7249544
  -0.1913215  -0.3245073   0.3898920  -0.0794138   0.0522004  -0.1221297
   0.0351918  -0.1577674   0.3578170   0.1027865  -0.6547556   0.6902749
   0.2903774  -0.0670960  -0.0530784   0.2551853   0.3295374  -0.1470990
   0.1229863   0.1364961   0.0384334   0.2024370  -0.1518799   0.2128210
  -0.2250064  -0.8144618  -1.1221466  -0.2841042   0.4062707  -0.4248339
   0.0060316   0.2118881  -0.0920600   0.3439967   0.2750911  -0.0906139
   0.1991349   0.0289847  -0.4797180  -0.3072546   0.2764445   0.0797858
  -0.0476154  -0.1668072   0.4546477  -0.6879085   0.6066815  -0.2464721
   0.0243096  -0.0516288   0.0218660  -0.3641195  -0.2142100   0.0399039
  -0.1274042  -0.0287573  -0.1093168   0.0962915  -0.0035614  -0.1231011
   0.3905414  -0.7033462   0.2724927   0.1595912   0.2930092   0.1094394
   0.1241278  -0.2125820   0.1789624   0.5779670  -0.0117703  -0.1662756
   0.2921425  -0.4816930   0.1587411   0.0709420   0.0236273  -0.1718437
   0.2485738   0.3195310  -0.2634446   0.0819665   0.0532966  -0.2919577
   0.0856409  -0.1988564   0.0022166   0.1677674  -0.7211860   0.7018863
  -0.5614019  -0.7190557   0.3634010  -0.2415362   0.1072439  -0.3291538
   0.4122043   0.6498478   0.9136728   0.0090257  -0.5505815  -1.3652492
   0.0253829  -0.0438668   0.0402187  -0.0405758  -0.2895608   0.3203790
   0.0030924  -0.3401377   0.5898033  -0.1031713  -0.1776307  -0.0411867
  -0.0748997  -0.0215078  -0.6866664  -0.0014747  -0.1344812  -0.2349409
   0.0069459  -0.1358632   0.0161895   0.2424370  -0.0888317   0.0339799
  -0.0202205  -0.0747024   0.1015662  -0.1553216   0.4482081  -0.0003091
  -0.9005960  -0.2734767   0.4082048   0.3894573   0.9771125  -0.4254683
   0.0886765   0.1780558   0.0078087   0.8014925   0.4160641  -0.5351722
  -0.1032367   1.2109463  -0.1912630   0.1823880  -0.1272286  -0.0961152
  -0.0469626   0.4986668  -0.6272143   0.0587532   0.1895895  -0.2846661
   0.0937173  -0.0699996  -0.2915364  -0.5054982  -0.0736434  -0.9832145
   0.1733497   0.1680626  -0.2873365   0.3275564  -0.0731340   0.1539982
   0.1993890   0.0059999  -0.7899957  -0.2827705   0.1167076   0.6046243
   0.0440514   0.0253583  -0.0165499   0.3033471   0.0914090  -0.0673730
   0.3623001   0.0293545  -0.3831221  -0.1521840  -0.1324033  -0.0862466
  -0.3964998  -0.5074317   0.1593304   0.2965089   0.4421250  -0.6578249
  -0.1301462   0.1760646  -0.0010737   0.0423107  -0.0626188   0.6251157
   0.8155017   0.0042744  -0.2295462   0.0528137  -0.2064849   0.1041231
   0.7003219  -0.3633425   0.5286861   0.7574908  -0.2503762   0.3834296
  -0.2325520   0.0790135   0.2456598  -0.2204332   0.1723019   0.2304381
  -0.3891800   0.3848734   0.3621721  -0.0387746  -0.1925109  -0.1081187
  -0.3846809   0.8139871   0.0538936  -0.5065236  -0.9526467  -0.0252560
   0.0499251  -0.2755712  -0.1903992   0.0215809  -0.2131232  -0.2786383
   0.2206501  -0.0000918  -0.1771831  -0.2534214  -0.2605039   0.1105632
  -0.1774218  -0.1965969   0.4225905   0.3831019  -0.3661558  -0.0017728
  -0.1957439  -0.0190266  -0.0503231   0.4820740  -0.1496939   1.0121387
   0.5569202   1.0507378   0.2862897   0.0493042  -0.0587284  -0.1207819
   0.1322318  -0.0601865  -0.6991056  -0.2136073   0.1696498  -0.3728596
  -0.0048544   0.1206504  -0.0319885  -0.5111130   0.0963747  -0.8964306
   0.2984045  -0.3676864   0.0996223  -0.0957647  -0.1016740  -0.3658722
   0.2510586  -0.5481243  -0.0186883   1.0071529   0.7807737   0.4542890
  -0.3302372   0.1265059  -0.2942511  -0.3728225   0.1910311  -0.2924849
  -0.9055648  -0.0977809   0.1676771  -0.0024009   0.6294616  -0.0448814
  -0.9283951  -2.1871354  -0.1615907  -0.1351440   0.4027796  -0.0843557
   0.0767015   0.1331406  -0.0172582   0.1492114  -0.4875245  -0.5749437
  -0.9496921  -1.1690190   1.1259130   0.2681700   0.5994763  -0.1285071
   0.2094196   0.0366384   0.3064576   0.1139339   1.3472271  -0.5661326
  -0.3600936  -0.1813026  -0.0686399  -0.2739508  -0.0941104  -0.2827912
  -0.4910437  -0.5550404   0.3000630   0.1143431  -0.3896979  -0.1005196
   0.2101359   0.2432270  -0.5724478  -0.0702055  -0.2772374  -0.7829839
   0.0359339   0.0723658   0.0480518  -0.1656813   0.1801650   0.0934601
  -0.3933617  -0.0554697   0.3548442   0.1861929  -0.3262707  -0.1272742
   0.0169689   0.7958029   0.1496784  -0.2543208  -0.9854932   0.6881681
   0.0821908   0.1690603  -0.0887026  -0.6737689   0.7390509   0.4426279
  -0.2635796   0.0504902  -0.6781281  -0.0601412  -0.1571437   0.1417267
  -0.2023329   0.1259280   0.0503085  -0.0173347   1.2890003   0.0090522
   0.3209265  -0.2699197   0.1691279   0.3649155  -0.2000711   0.7623522
  -0.4979562  -0.4454138   0.5088935   0.1524496   0.4676498   0.1627688
  -0.0148279  -0.7843617   0.7995493   0.1439958   0.6380983   0.1120764
   0.0034817   0.4797342  -0.0490364   0.1471803   0.6374196   0.2590205
   0.4999708  -0.2307714   0.3593293   0.1482817  -0.0982451  -0.0179611
   0.1057593  -0.0239354   0.1379296   0.0009349   0.1576374   0.1155929
   0.2016695   0.1896933   0.6075260   0.3962929  -0.3284155   0.5176404
  -0.2885679  -0.0027460  -0.1004152  -0.1977722   0.2800148   0.1575925
   0.0664724  -0.2060736  -0.0068162   0.6575710  -0.0016132   0.3583400
   0.1001392  -0.0378380  -0.1357856   0.1375215   0.0334862  -0.7268499
  -0.2698371   0.2928475  -0.2838007  -0.0814084  -0.0029665  -0.0007192
  -1.2140961   0.7197946   0.2034918  -0.1314451   0.3285198  -1.2270070
   0.3614595  -0.0363875   0.0047916  -0.0130639  -0.2632382  -1.3730085
   0.2776126   0.1232187  -0.7139952  -0.0220396   0.2460593  -0.2492967
   0.0816617  -0.6035552   0.4206813  -0.2171263  -0.7824688   0.7999239
  -0.0718892   0.3082297  -0.2730824   0.4605204  -0.0411423   0.2180969
  -0.2023593   0.1934430  -1.7430865  -0.0845409   0.0004699   0.1410981
  -0.2114142   0.3311488   0.1288138   0.2072030  -0.0385360  -0.0129479
  -0.0049889  -0.0320171   0.0463720  -0.3559854  -0.6230003  -0.6052442
  -0.1137836  -0.2173323  -0.2643812  -0.2314940   0.0356789   0.2938388
   0.8177979   0.1226120  -0.7822261   0.5821828  -0.2825684   1.5398578
  -0.1836757   0.0361144  -0.0459630  -0.3880120  -0.4711157  -0.2135278
   0.6983052   0.3305094  -0.4492454   0.1527775   0.0479899  -0.0932631
  -0.2770483  -0.2861931  -0.0314926  -1.3070633   0.6893694   0.2971570
  -0.4389496   0.2836195  -0.0612491  -0.5242871   0.0409387  -0.1129543
  -0.2084013   0.1302448  -0.5985383   0.2444212   0.0802932  -0.1570811
  -0.1651874   0.4454738  -0.4365871   0.2740510  -0.1507030  -0.6815637
   0.0593509  -0.1366121   0.0034109  -0.0016257  -0.1844864   0.1644157
  -0.6087216   0.3955123   0.6265745   0.3190520   0.2876294  -0.2783524
  -0.0862511  -1.0575441  -0.3112071   0.5478139  -1.5711999  -0.4101553
  -0.1286881  -0.0286226   0.0883446   0.1085175   0.1075306  -0.7748449
  -0.4516769  -0.3416971   0.3798480   0.1217757   0.3795061  -0.0633854
  -0.1802032  -0.8121035  -0.2430190   0.4153229  -0.0821540  -0.2005840
  -0.0424180   0.2280997  -0.1152411   0.0907117   1.3569958   0.1573690
  -1.1155555   0.1508844   0.2755328  -0.0002893   0.2824803   0.0033040
  -0.7760153   0.6265562   0.1694201   0.1778854   1.0754266  -1.2466925
   0.0895587   0.0737096   0.0353986   0.4938486  -0.7147052  -0.4813577
   0.3095256  -0.3609023  -0.1987003  -0.2080589   0.2248184   0.0190321
  -0.4472224   0.8402696   0.7066318   0.0044099  -0.6748184   0.3487452
  -0.1550992  -0.1902227   0.0499778  -0.1273272  -0.5867602   0.0720502
  -0.2460998  -0.6909061  -0.4200344   0.1985381   0.0410356  -0.0291092
   0.9210287   0.6714831   0.1223279  -0.1300974  -0.1397950  -0.8918497
  -0.2705819   0.1141714   0.0607972   0.3525451  -0.1195704   0.4420024
  -0.6734170   0.7904609   0.5180084   0.0187679  -0.2958216  -0.2806352
  -0.2588590  -0.6193331  -1.6414349   1.2098069  -0.4230649   0.1177634
  -0.3857646  -0.1187211   0.0267805  -0.3541162  -0.0089032  -0.1657494
   0.8115507  -0.6146089  -0.0871558  -0.1638336   0.1723697  -0.1733014
   0.0995611  -1.0419608   0.3329848  -1.0976599   0.2290434   0.1215937
   0.3098712   0.0414126  -0.0230638   0.3639473  -0.0625896   0.5395156
  -0.1829939  -0.2939014  -0.8833671   0.0666488  -0.0639069  -0.1071009
  -0.9215146  -0.0917604   0.2133676   0.3062183   0.0612291   0.4725758
  -0.0893100   0.2020037   0.1010648  -0.3945727  -0.2966015  -0.2953808
   1.1034942  -0.2613782  -0.1364576   0.0352104   0.1163831   0.2604775
   0.2079374   0.6401490   0.1911996  -0.3507840  -0.2809624   0.3423311
  -0.2445060   0.2345228  -0.0338985   0.1165235  -0.3658059   0.3362670
   0.0976641  -0.1900519   0.0217744  -0.2983648   0.1711184   0.1782111
   0.4854668  -0.9194609  -0.1927569  -0.9771966   0.6481642   0.3987968
   0.2402713  -0.0338117   0.1270963   1.1355544  -0.1452969   0.8982368
   0.6585938  -0.1630878   0.5914782  -0.2053356  -0.2709007   0.1429455
   0.2274758  -0.4406449   0.0822889  -0.2113266  -0.2017386   0.2780205
   0.0256546  -0.0119648   0.2628624  -0.3275666   0.2294883   1.2621477
   0.4185909   0.1839831   0.0140906   0.3235240   0.2133340  -0.1477298
  -0.1673604  -0.0636361  -0.0193743  -1.0141158   0.7052357   1.7519351
  -0.1545590   0.1508832   0.0660488   0.3395315  -0.3988336  -1.0250274
   0.3066246   0.1464765  -0.1072393  -0.0313625   0.1698615  -0.3726116
  -0.2098610   0.1657253  -0.3531188   0.6482111  -0.4047563   0.5186373
   0.2093853   0.2767670  -0.0879973   0.2486166   0.0425775  -0.9119445
   0.5317569  -0.3616537   0.3742979   0.2416453  -0.1690342  -0.5216481
   0.3075114  -0.4724387  -0.4480491   0.1489529  -0.5003340  -1.3093953
  -0.1129948  -0.1746627  -0.2718848  -0.8719605   0.2441650   0.4491596
  -0.0604268  -2.0515552  -0.7275113  -0.0120363  -0.1229516   0.3784080
  -0.0092467  -0.1520307   0.6078688   0.1907735  -0.0013702   0.3546712
  -0.2948515  -0.0408492   0.2235959  -0.7046507   0.7191608  -0.8260994
   1.2264809   0.3230746  -0.3436468  -0.1941647  -0.1160344  -0.0642861
  -1.0177894  -0.4330876  -0.1463796   0.5842611   0.2019757  -0.0702805
   0.4144497   0.2832687  -0.1131935   0.2793038  -0.3266713   1.3521660
  -0.2707418  -0.0052524  -0.2999278  -0.0184450   0.0101491   0.0165113
  -0.6374326   0.0414039   0.6140848   0.3149556   0.3369532   0.4384497
  -0.1240092   0.0166830   0.2381368  -0.2329753  -0.0991603   0.5657882
  -0.0133384   0.2408204   0.4008100   0.1649322  -0.1322074   0.1640577
  -0.0086693   1.8146054   0.6314625   1.0578034  -1.1181203   1.3900975
  -0.4333649  -0.3365686  -0.1381025  -0.2878358  -0.3227366   0.1651786
  -0.5965911  -0.5369701   0.7531940   0.4824838   0.1234325   0.1467384
   1.2532616   0.1979764   0.7382719  -0.1381975  -0.0386541  -0.0308332
   0.2203768  -0.2912671  -0.0517870   0.0245108  -0.5654347  -0.4992596
   0.1645592  -0.3349049  -0.5146547  -0.4152678   0.0447378   0.1915819
   0.2911428   0.9437823   0.5801117  -0.3638973  -0.3165708  -0.3059819
  -0.2621581  -0.0366073   0.1389676  -0.4836507   0.2296399  -0.0548976
  -0.0564410  -0.4020627   0.8271108  -0.0911997   0.2222381   0.0907890
  -0.1227693   0.3522818  -0.3544377  -0.4754595   0.2232022   0.2593105
  -0.1941795   0.2772412   0.1237254  -0.3912498  -0.1715613  -0.2704164
  -0.8732549   1.2324812   0.8737346  -0.0435259   0.1987547  -0.0727329
   0.5776240  -0.2854281  -0.1562394   0.1025284   0.1022109  -0.3980892
   0.0561417   0.1463855  -0.0028834   0.5917705   0.1557125  -0.5007446
  -0.9199758   0.8924274   0.0369418  -0.3753136  -0.0062313  -0.3688487
  -0.5111495  -0.6314686   0.4752800   0.1160226   0.8506491  -0.2244011
  -0.0593032   0.2283101  -0.1877903  -0.2777775   0.2185550  -0.1035934
  -0.1552534   0.2171237   0.0776550   0.1211410  -0.1354232  -0.0250411
   0.0609261  -0.5864324  -1.2478911   0.6550665  -0.6894734   0.9449001
   0.3090967   0.0385189   0.0023860  -0.6421668  -0.9341677   0.4894427
  -0.3175062   0.1721461   0.6100758   0.0539505  -0.0670568  -0.0453000
   0.3879521  -0.2934408  -0.2794425   0.7245679  -0.1689335  -0.5024197
   0.0033363  -0.3202733   0.2852722  -0.3578670   0.4187830   1.1938736
   0.1514322  -0.1279182  -0.3501561   0.1697398  -0.0963205   0.0328808
  -0.5252550  -0.3005642   0.6210981   0.0668315   0.0004339   0.2613705
  -0.5709536   0.2296533   0.1237372  -1.0704764   0.2395271  -0.1288856
  -0.7155298   0.4031619   0.1808138  -0.0003918   0.4885812  -0.3761412
   0.3101285   1.0639987  -0.2954251   0.6681478   0.1840408   1.6873861
  -0.1627836  -0.0796701   0.2420720   0.4496082   0.2616586  -0.6737272
   0.7644441   0.3220112   0.4919710  -0.0232355   0.1438345  -0.1117661
  -0.6827778  -0.4341328  -0.0173441   0.4831764   0.5296198   0.1022155
  -0.0074244   0.0905127   0.2859527  -0.2742115   0.3880441   0.4171447
   0.1130061  -0.2695956   0.2217384  -0.0856911  -0.2243221   0.0230326
  -0.6459537   0.1408491  -0.0916995   0.7312095  -0.6930725   0.1369082
   0.0971478  -0.0855738   0.3052783   0.2324871  -0.2773462   0.1040869
   0.2222521  -0.4698780  -0.2708161   0.0759476  -0.0828627  -0.2689067
  -0.4302818   1.4327779   0.4265320  -0.5881812   0.1654703  -0.7800597
   0.1593165  -0.0969551  -0.1049135  -0.1287141   0.5427844   0.5300500
  -0.5787381   0.2336526  -0.0682334  -0.1146804  -0.0894803   0.0333760
   0.6026558   0.5572593  -0.1887866  -0.4341799  -0.2173154   0.1016455
   0.1541666  -0.2299461  -0.2196009   1.1521259  -0.2757405  -1.0890503
   0.6016326  -0.0011633  -0.8936341  -0.1022824  -0.0229845   0.2419145
  -0.1222393  -0.1876842   0.4323414   0.1116632  -0.0212497   0.5978580
  -0.0860790  -0.2001988  -0.1381591  -0.3768218  -0.7609830  -0.1435463
  -0.1841825  -0.5635512  -0.0474025  -0.1590729   0.2435111  -0.0066744
   0.5008383  -1.2253933   0.9825250  -0.4645386  -1.4021953   0.7757897
   0.0099967  -0.1257475   0.0247895  -0.0809020   0.2312203   0.1262108
  -0.2500590  -0.2192959   0.2429985   0.2296951  -0.1869547   0.0647011
   0.1378640  -0.3953740  -0.3172329   1.1362955  -0.2299024  -0.7119156
  -0.0378445  -0.1720817  -0.1111080   0.1507058  -0.1923678  -0.0601923
   0.6638545  -0.7734251  -0.5362275  -0.1140087  -0.0117954  -0.2743128
   0.5037069   0.3832752   0.0905409   0.4914539  -0.0822961  -0.2052524
   0.4690258  -0.2145213   0.0926298  -0.7141309  -0.6459385   0.2991957
   1.0889187  -0.2929497   1.0856869  -0.0614843   0.0381247  -0.0544458
  -0.2824541   0.0646776   1.2429600  -0.5427089   0.0541928  -0.9386646
  -0.0800347   0.0119578   0.2156269  -1.1313858   0.6516531  -0.1514875
   0.2507496   0.4316439   0.1239505  -0.0200005  -0.7315442  -0.4058486
   0.0506698  -1.3957208   0.0156139  -0.4974130  -0.2204445  -0.0173434
   0.0806163  -0.0835733  -0.0731808  -0.4837892  -1.0090982   0.4733027
  -0.7197429   0.6075919   0.0551061   0.1024752  -0.0041994  -0.2227189
  -1.0531525  -0.1297100   0.0849607   0.1522021  -0.3922827   0.4730141
  -0.1072194  -0.0800015  -0.2469731   0.0668705  -0.2627711   0.3282514
   0.3661352  -0.1437522   0.5937556   0.0753023   0.3259338  -0.0332965
   0.3121151   0.2626489   0.1636687   0.6184609  -1.0755134   0.3067198
   0.1189670  -0.2028920   0.2902663   0.0519996   0.1409809  -0.1109014
   0.2418479  -0.6764472   0.2290063   0.1441323  -0.3271788   0.1078510
   0.2099367  -0.3942719   0.1270504  -0.1417205  -0.1424234   0.0270571
   0.0033711   0.0589972   0.3236738  -0.2757610   0.2444903   0.4381229
   0.2999372  -1.2660001   0.6214368  -0.0394579  -0.1596795   0.0523732
  -0.4267231  -0.3055933   0.9241463   0.5291628  -0.9202292  -0.6208985
  -0.0046807  -0.0180200   0.0796476   0.6619236  -0.0178922   0.2719464
  -0.5467794  -0.5112838   0.1584043   0.0657713  -0.1910894   0.1584383
   0.6301936  -0.5905596  -0.0322331   0.2113981   0.3226298  -0.4749649
  -0.0286393   0.2742953   0.1789818  -0.5351102   0.3652798   0.2470439
   0.4181164   0.2623220   0.1378011   0.0363067  -0.0090068  -0.0601084
   0.4509636   0.5879131   0.0239211   0.1266627   0.1169751   0.1064324
   0.0980885  -0.1333589  -0.3457071   0.0611602  -0.4473761   0.3270037
   0.5196078  -0.3501649   0.7652015  -0.0087241  -0.2465903  -0.0613340
   0.6567208  -0.6404706  -0.3805626  -0.2616071   0.2614782   0.0555062
  -0.0899907   0.1618735   0.1446643   0.1989963  -0.1284105   0.3008109
   0.0501471   0.4957335   0.4453052   0.2045838   0.1426100  -0.1276615
   0.5703286   1.4224459   0.4749703  -0.8857411   1.0805713   0.3406535
   0.2085095  -0.1176563  -0.0771762  -0.4284796   0.2042493   0.1830869
  -0.2869651   0.2328000   0.3078861  -0.0375628  -0.1742419  -0.2111345
  -0.6753873  -0.2522870   0.3832213  -1.0384252  -0.8373374   0.6644393
   0.0411157  -0.0823021   0.1507148   0.0148892  -0.2794605   0.3018846
  -0.2125426  -0.2028874   0.6908439   0.2557120  -0.0992180   0.1129795
  -0.4495081  -0.6803184   0.2181009   0.4117497   0.0964284   1.0383393
   0.0337702   0.1476464  -0.1931790  -0.1259053  -0.5735284   0.0972743
  -0.2591490   0.0924009   0.0262524   0.0167355  -0.0055597   0.4144634
   0.3283086   1.0285961   0.7365459  -0.0025763   0.2416831  -0.1950998
   0.1398588  -0.0105227  -0.1048272  -0.6157524   1.0877645  -0.1779430
   1.0041981  -0.8872782   0.1268964  -0.0219811   0.1372317   0.0241159
  -0.6872881   0.6307220  -0.6118611  -0.8368779   1.6730080   1.0702762
   0.1286928  -0.2119271  -0.1801899   0.6589912   0.0414155  -0.8722063
  -0.3672407   0.1091703  -0.6725612   0.1704168  -0.0532176  -0.0102656
   0.1860102  -0.2071563  -0.1784760  -0.4200954   0.8876436   0.3387422
   0.2727348  -0.2175291  -0.0333388   0.0558590   1.3416812  -0.2167602
  -0.0645028  -0.5523766  -1.5022160  -0.0892443   0.0350281   0.0637958
  -0.6710015   0.3439188   0.1514628  -0.7376159   0.3625977   0.2198072
  -0.0940468  -0.1289433  -0.0829901   0.8017676  -0.2481209  -0.5981649
   0.2302871  -0.1252122  -0.2874075   0.4721323   0.2343144  -0.1210028
   0.6210213   0.2434505  -0.0751430   0.1090518   0.2644089   0.0173469
  -0.1204327  -0.1051179  -0.2301517  -0.8104803  -0.0473659  -0.5805294
   0.4148834  -0.2698288  -0.6990911   0.1140792  -0.3073040   0.2762663
   0.7644393  -0.0232094   0.8015961   0.1971854  -1.1474787   0.4900067
  -0.0696122   0.2849113   0.0831254  -0.4428827   0.5718443   0.2326415
  -0.1277320   0.1709386   0.1580705   0.3048691  -0.0027728  -0.2781414
   1.1202770   0.4724820   0.2567545   0.6328031   0.3437169  -0.0607595
   0.0584876  -0.5076656  -0.2298836  -0.7044869   1.0115524   0.4595422
  -0.4138192  -0.9758311   0.6885662   0.3465981  -0.2326775  -0.2280985
   0.0694684   0.1881578   0.4860651   0.0038102  -0.2992330  -0.9094694
  -0.0553757  -0.1379968   0.1256042  -1.1075612  -0.9755698  -0.4268670
   1.3814438   0.6679105   0.1253433  -0.1657926   0.1110926  -0.0728535
  -0.1214755   0.3187942   0.4459831  -0.3944808   0.2828528  -1.0938350
   0.0045989   0.0453292   0.1320446   0.2045018  -0.2546790   0.6369876
  -0.3041558   0.2864853   0.1581942  -0.0346287   0.3867741  -0.1870717
  -0.0759080  -0.0497513   0.4279895  -0.1049433  -0.1055911   0.4058698
  -0.1174577   0.0711450   0.2087179   0.1043471   0.3199580  -0.0961981
   0.3759713   0.8266792   0.9929881  -0.2548150  -0.1692934   0.0367223
  -0.5239804  -0.2437893  -0.2839160  -0.3845597  -0.6222513   0.1723306
   0.0566148  -0.1108505  -0.0660855   0.3094450  -1.0026831  -0.1363529
  -0.0619302  -0.2544176   1.1839350   0.0128701   0.4449601   0.1067812
   0.1633488   0.4989704  -0.7221008   0.0182759   0.1216429  -0.2091524
  -0.1538981   0.0236265  -0.1059673  -0.6594990  -0.1203481  -1.4467450
  -0.5920420  -0.0328505  -0.6270643  -0.2401853  -0.2150388   0.2594444
   0.0424095  -0.4315067   0.4583318  -0.3751763   0.0777684   0.2230175
   0.0565615  -0.0808304   0.0928273  -0.0306756  -0.3942084  -0.0038222
   0.4481563  -0.0585151   0.3884242   0.0094168   0.1312592   0.1568314
  -0.6691441   0.0980114  -0.0519928  -0.3499452   0.0639864   0.0836594
  -0.0703022  -0.2113739  -0.0912803  -0.5633659  -0.8995910  -0.8128468
   1.2399258  -0.7115254   0.1441889   0.0164698   0.0245620  -0.2477425
  -0.2458062  -0.7311685  -0.1737794  -1.4204355   0.0167283   0.0762111
  -0.2695493   0.2337542  -0.2120252   0.7793164  -0.4398844  -0.5385652
   0.2309063  -0.6666825   0.8291836  -0.1531672  -0.0652664   0.1182146
  -0.1154565   0.0901488   0.0403812   0.1983091  -0.2232620  -0.7964604
   0.0070591  -0.3477414  -0.1653815  -0.1741985  -0.5871576   0.3320827
  -0.3893909   0.0662338  -0.3028950  -0.0007160  -0.0490388   0.2126636
  -0.0884734  -0.2295731   0.1885612   0.2251831  -0.0123961  -0.4402964
  -0.1020989   0.1093181  -0.0788758   0.9093044  -0.1705638  -0.4303106
   0.3160260  -1.6946966  -0.8347079   0.4501712  -0.0795886  -0.2833718
   0.7647578  -0.0719018  -0.5288107   0.2242411   0.1856423  -0.3563903
   0.1795805   0.0224129  -0.1041066  -0.8984972   0.0885029   0.0317193
   0.3205983   0.6299295  -0.2303379  -0.1459143  -0.2414398   0.0400427
  -0.1497819  -0.1814962   0.0068140  -0.0936235  -0.5255653   0.2062503
  -0.1845486  -0.0211234  -0.2895716   0.7933916   1.0324825  -0.3137261
  -0.8171403  -0.5165406  -1.4007058  -0.0133286   0.1396439  -0.3501795
   0.1227615  -0.1039740   0.3047956  -0.9842568   0.0365569  -0.4299533
  -0.1285323  -0.1162674  -0.1507065   0.1187291   0.0397656  -0.1783992
  -0.4527951  -0.4843570  -0.5594479  -0.0973987  -0.3895207   0.0432692
  -0.3489115   0.0250600   0.6048638  -0.9426413   0.3721724  -0.4481661
  -0.0323012   0.1183466   0.1572149  -0.1849023   0.3962029  -0.7128765
  -0.7078055  -0.5614796   0.0002271   0.1269789  -0.1275949   0.1430451
   1.0865968   0.2227468   1.2334663  -0.3411484  -0.2383601   0.2309560
   0.3086900  -0.2405082  -0.1801267  -0.2386514   0.3207869   0.1216548
   1.0927611  -0.5822980  -0.0533538  -0.2193107   0.0709804  -0.0701663
  -0.3852712   0.4553451   0.1602561   0.1739969  -0.2915882   0.2639848
   0.2468818  -0.0204894   0.2293617   0.0310149  -0.2473544   0.2337874
   0.1529328   0.2962892   0.0997126   0.0384374   0.2470266   0.1072460
   0.0809438   0.4378422   0.3197642   0.3923530   0.0244878  -0.7146672
   0.0891366  -0.1557779  -0.1628334  -0.2746282   0.1445349   0.3025610
   0.6856921  -0.4028283   0.0119614  -0.1821635  -0.1655652  -0.1676285
   1.3076671   0.0124061   0.7462144  -0.8870040   0.1561311  -0.2771231
   0.1461293   0.2165762  -0.2170401   0.2661205  -0.4260914  -0.4505129
   0.7054354   0.6159718  -0.3897860   0.3059172   0.2863182   0.1268414
  -0.0183032  -0.2323450  -0.1144978   0.1709314   1.0241421  -0.9917599
  -0.1407451   0.2456832  -0.0038880  -0.1726426   0.1744613   0.0607064
  -0.2055433   0.3201396  -0.1278918  -0.0523686   0.1554564   0.1524896
   0.0580144  -0.2323293   0.1644292   0.4479317  -0.1618285   0.5608455
   0.3549602  -0.2901901  -0.0127295   0.3266218   1.3002974   0.3526797
   0.1342686  -1.1419378  -0.6136909  -0.3871208   0.0510473  -0.1304701
   0.8921779   0.9610265   0.3663448  -0.2913378   1.4196546  -2.1241661
   0.2206155   0.1225155   0.0316269   1.2855063   0.6584175   0.2108557
  -0.4614499   0.9555792   0.1855634   0.0501516   0.4054793  -0.1423528
  -0.0513849   0.4618146  -0.4188478  -0.0639021  -0.1382095   0.0903347
   0.1269189   0.0916583  -0.1261069   0.0185625   0.2995847  -0.0030593
   0.1568647  -0.2515677  -0.3671201   0.2896862   0.3098593   0.0204486
  -0.6412355  -0.2280494   0.1505075   0.5367325  -0.0930156   0.7009063
  -0.1316281   0.2030158   0.1698594  -0.6795848  -0.4179063  -0.0776975
   0.2865791  -0.2432921   0.3128160  -0.0713090  -0.1092032  -0.0495160
  -0.1095424  -0.2746847   0.2044335  -0.4184490   1.3617874  -0.7176838
   0.1013079  -0.4247803  -0.0197645  -0.4842299  -0.5600958  -0.1941801
   0.1936152  -0.1078635   0.1981414  -0.0774635   0.1696893   0.1176660
   0.3824754   0.0240106   0.3807419  -0.6171135   1.0699800  -0.6202980
   0.0897088  -0.0292894   0.2291017  -0.2500207   0.4282268  -0.5140765
   0.0743836   0.1541315  -0.0521572   0.1645899  -0.1205394   0.3848974
  -0.1718747   0.2890592  -0.0484570  -0.2748807  -0.2587377  -0.2737126
  -0.2724143  -0.1451023   0.0714978  -0.5123572  -0.0773122   0.1775765
  -1.5306486   0.4675840  -0.9650550   0.0123531  -0.1473424  -0.0637975
   0.5983934   0.3940729   0.0828786  -0.5735437  -0.3821131  -0.2344813
   0.1887072   0.2362357  -0.1262113   0.3339250  -0.0213342   0.3974782
   0.5736636  -0.8061896  -0.5059375  -0.0751771  -0.0073673  -0.0525028
   1.1109026  -0.5948014   0.1234987  -0.4932905  -0.5917425   0.4182873
  -0.0006159  -0.0390529   0.0519674   0.1041349  -0.3077651   0.8699058
   0.0323169   0.2455433   0.4268447   0.0437945   0.0555704  -0.1917277
   0.5534416   0.2269613  -0.0771235   0.0144903  -0.6808234   0.0386118
  -0.0301114   0.3116601  -0.1257406  -0.0668237  -0.8814880  -0.9262105
   0.2310385   0.5819103   0.1906928  -0.1197038   0.0286431   0.2396693
  -0.6216704   0.5056513   0.0637876  -1.1397231   1.1204858  -0.0170740
   0.3836443   0.1393429  -0.1565294  -0.6428637  -0.7663912   0.6499026
   1.6636907  -0.5604906   0.5840713  -0.2304552  -0.1613937  -0.1892869
   0.1926779   0.1971339  -0.2626858  -1.5750835   0.2913915   0.9017068
   0.1526782  -0.1297792   0.0972273   0.6085168  -0.4186949   0.0573414
  -0.3240113   0.4785579  -0.4426861   0.1430018  -0.0263731   0.2678247
  -0.6413830  -1.1123242   0.1039701   1.0633874   0.4678624   0.8601266
  -0.1256312  -0.0796575   0.1137466  -0.1359361   0.0631212  -0.5434422
   0.0429496   0.8229013   0.1045640   0.0988190   0.3973630  -0.0603386
   0.7822088   0.7412697  -0.2267549   0.1654484  -0.0363638   0.1430699
  -0.2187675  -0.1005560   0.0037334  -0.6972407   0.0791817   0.8959998
   0.1640923  -0.3283564   0.2874130  -0.1475573  -0.1262682  -0.0298423
  -0.9543337  -0.3837448  -0.8806208  -0.2111319   0.7078752  -1.2984232
  -0.0875155   0.1483916   0.1271357  -1.2403945   0.6664063  -0.0970566
  -0.2084985   0.4322109   0.3643140  -0.2360894   0.0382289   0.0767426
   0.6397720  -0.8792213   0.9833238  -0.9811512   0.9422304   1.6760375
   0.0756352   0.0468969  -0.2541785  -1.4597462  -0.0183761  -0.2812218
   0.2786737  -0.1282349  -0.3416067  -0.1801546   0.1646008   0.0638916
   0.5452084  -0.6104705   0.0741904   0.1653576   1.0706601   0.7063400
  -0.0434527  -0.2529953   0.0835111  -0.0748137  -1.0498385   0.4840591
  -0.7398497   0.0818725   0.3330749   0.0069782  -0.1591599  -0.0330673
   0.3530350   0.6566175  -0.0772063  -0.9011178  -0.0075976  -0.0140419
   0.0890417  -0.0358683   0.3382470   0.3038745  -0.5282975   0.2964408
  -0.3556273  -0.0948525   0.3345726   0.0983475   0.0735309  -0.3012325
  -0.0864518  -0.6967645  -0.5120862  -0.0334456   0.4588571  -0.2912943
   0.2642666   0.0328777   0.4333265   0.3471889  -0.7546522  -0.5175518
   0.8288963   0.9872275   0.0999748   0.2115383   0.0561355  -0.0794521
   0.1244874  -0.0335481   0.4479492   0.2615316  -0.2729585   0.4219164
  -0.1425902  -0.0198600   0.2072855   0.4499490   0.6589094  -0.0571461
  -0.1006560  -1.5097653   0.5481278  -0.0328822   0.0555168   0.3088813
   0.2319174  -0.4454892   0.2263142   0.4469475   0.0511276  -0.0131327
  -0.0372071  -0.2623989  -0.0241950  -0.0139439   0.2591462  -0.9325985
  -0.0307352  -0.3088693   0.0282329   0.0864427  -0.3305077   0.1742764
   0.0582216  -0.7150941  -0.1023773   1.1061257  -1.1024046   0.1612486
   0.0883030   0.2981569   0.0275820  -0.4215374  -0.4979903  -0.3647230
   0.1998169   0.6195165   0.3448155  -0.0381177  -0.1559796   0.0965147
   0.1571824  -1.2933573   0.7930128   0.2525583  -1.1255960   0.3648848
  -0.0398623   0.0075622   0.0235403   0.0516581   0.3734508   0.2667324
   0.4202036  -0.1225441  -0.1263519  -0.0107728   0.0864559  -0.0597227
   0.1629039   0.3043718   0.3339498  -0.4341606   1.0053328  -1.7634883
  -0.0411576  -0.0365019   0.0290540   0.6986422  -0.8979658   0.1853332
  -0.1513760  -0.2280791   0.8603475   0.0366905  -0.1934604  -0.1540250
  -0.3191448  -0.9552408   0.2833431   0.5147908   0.4705156   0.0393671
   0.3019961   0.0097396  -0.0126089   0.2215955   0.3948004   0.0023591
   0.6814221   0.8356811  -0.4185457   0.3066007   0.0209938   0.4146131
   0.8689165  -1.6170145   0.5778305   0.0559229   0.7890350  -0.0032043
  -0.1459384   0.0504454  -0.2898726  -0.2646435  -0.3128786   0.3626440
   0.1133027   0.3409682  -0.6034856   0.1947338  -0.1128548  -0.0396850
   0.4261713  -0.3701408   0.3923545   0.5034487  -0.4227909  -0.4954489
  -0.1304362  -0.1225040  -0.0915280  -1.0471644   0.8554239   1.6856591
   0.2373735  -1.5632050   0.4675088  -0.1005075  -0.1046115  -0.0294857
   0.9943403  -0.1723821  -0.3577653   0.0203164  -0.0235676   1.3606873
   0.1439284   0.0040533  -0.1669490  -0.6256583  -0.3006821  -0.4294785
   0.4423384   0.4365888   0.1569015  -0.1709197   0.0799749   0.3373341
   0.0379432  -0.3364778   0.7892950   0.1485769   0.1150233  -0.2231352
   0.0063145   0.3001102  -0.1806379  -0.5307438   0.5199158  -0.4326908
   0.7331310  -0.2787114   0.4955348   0.0670084   0.1750754  -0.1818895
   0.4556259   0.2715165  -0.1181305  -0.1338029   0.4651759  -0.4381012
  -0.2225812   0.1640403  -0.0658880  -0.3335420   0.7231161   0.5729978
  -0.3961686   0.1019706   0.1022712  -0.0678110   0.0107635  -0.1961272
  -0.1104144  -0.2386825   0.2150549  -0.0731504   1.2730290  -0.1083508
   0.0152278   0.0954171   0.0457003  -0.0813033  -0.1042270  -0.2991166
  -0.0570002   0.3038414   0.4031115  -0.1068325  -0.0951474  -0.0353212
   0.1462774  -0.7223428   0.3670802  -0.4807941   0.3658798   0.9493143
  -0.0305994   0.2077870   0.0841238  -0.4991929  -0.1607988  -0.2277326
   1.0180077   1.0143920  -0.3976175  -0.3275762  -0.0624558  -0.0966339
   0.2814842  -0.0508413  -0.5717682  -0.1663440  -0.2621511  -0.2616530
  -0.1905596   0.0110359   0.0433020  -0.3468697  -0.0642556   0.0396560
  -2.4422059   0.4941813  -0.0269723   0.3178321  -0.2068625   0.0642874
   0.8160127  -0.5905620   0.3491012  -0.4668003   0.1523257  -0.8621604
   0.1994178  -0.0819578  -0.0185307   0.0090982   0.6619532  -0.0977516
   0.5605295  -0.7104719   0.2596061  -0.1562057  -0.0067277  -0.0519116
   1.2757753   0.1072208  -0.8387842  -0.3965480  -0.2479897  -0.0336056
  -0.1118731  -0.0138892   0.0313414   0.3203907  -0.4193612  -0.3738679
  -0.7275053  -0.1206843  -0.1203570   0.1422859   0.2357100   0.1446838
   0.2194193   0.1804578  -0.0578664   0.1902440  -0.0579915   0.0594833
   0.0847501   0.0088123   0.0633307  -0.0499906   0.3164767   0.4097452
   1.5950206  -0.7084467  -0.7591493  -0.0350154  -0.0942325  -0.0692790
  -0.7039114  -1.0018672   0.3235096  -0.2236786  -0.7784707  -0.0805482
   0.0013252  -0.0939631  -0.0433943  -0.1462811  -0.3226747   0.4566276
   0.2969129   0.2045223  -1.3316841  -0.0173940   0.2928284  -0.1955241
  -0.3434394  -0.1899301  -1.1755542  -0.6731613   0.4854422   0.1743371
   0.0592123   0.0488246   0.0227198   0.5740838  -0.1157729   0.5488937
  -0.4771686  -0.4681580   0.2058398   0.0916844   0.0995310   0.1000783
  -0.3463004   0.0990682  -0.1448297  -0.2076778   0.0814533   1.1375048
  -0.2082736   0.1943104   0.0219209  -1.3315215  -0.2611349   0.4978384
  -0.7630668   1.0313207  -0.0310168   0.1564846  -0.3180525  -0.1918311
   0.7100383  -0.3077911   0.2164678  -0.6296689  -0.1094894  -0.3333541
   0.0077690  -0.0203428   0.3967874   0.3639915  -0.2012652  -0.0628704
  -0.3828131  -0.1753116   1.4623829  -0.0492728  -0.1194173   0.2301335
   0.6610192  -0.5361877   0.8589260  -0.0828546   0.4376457   0.8954790
  -0.1086671  -0.2668943  -0.0704289  -0.2067045  -0.9618616   0.4127940
  -0.0495261  -0.3519936   0.6447661  -0.0082203   0.0786937   0.3124957
  -0.1265646   0.0421869   0.3738950  -0.1558890  -0.4369662   0.4901652
   0.2229912   0.2211203   0.4798584   1.2303266   0.3932100   1.0004285
  -0.5998690  -0.4117627   0.0075128   0.2545609   0.5486378   0.0888310
  -0.3085866   0.4453133  -0.2480824   0.6398867   0.8181206   0.5353612
  -0.0397297  -0.1375392   0.2586838  -0.6925041  -0.1701114  -0.3963936
   0.6408001  -0.4549085  -0.0876047  -0.2697928  -0.0190590   0.2210418
  -0.1951657  -0.3639799  -0.7193693   0.0639323   0.3165662   0.8330910
   0.1081468  -0.1163394  -0.1512963  -0.1889319  -0.0841841  -0.1791428
   0.1606626  -0.1445900  -0.3983005   0.0145115   0.1937139   0.0126941
  -0.9212124  -0.0925679   0.3116078   1.0825878   0.1616990   1.1512623
   0.0666068   0.1776816  -0.0769474   0.1905440  -0.0512316  -0.7802511
  -0.1646594   0.3377067   1.1621878  -0.2554929  -0.1696450  -0.1196605
  -0.3711437   0.0936428   0.2835039  -0.8211111   0.4804537   0.0153666
   0.0807658  -0.4548951  -0.0937007  -1.1010007  -0.1412596   0.5679841
   0.2158112  -0.3417272  -0.0497521   0.1344896   0.0724037  -0.1600560
   1.5031974  -0.7874954   0.0077184   0.4633476  -0.4986394  -0.4717456
  -0.0521156   0.1936069  -0.2156183  -0.0642382  -0.3966756   0.1036107
  -0.2540967   0.5523756  -0.3863987   0.0163981  -0.0500295  -0.0313397
   0.2555065   0.1692511   0.1197127  -0.2829462  -0.1806583   0.2317184
   0.2905047   0.1625365   0.1922661  -0.0243852  -0.0061855  -0.2283756
   0.0551395  -0.2458490  -0.2177408   0.1739853   0.1956428   0.1322088
  -0.1877568   0.0196798   0.0829490   0.1305541   0.3261506   0.7154115
  -0.2038728  -0.0223446  -0.0507200  -1.2751514   0.1002951   0.4065849
  -0.3567261   0.4502836  -0.4048416  -0.2402021   0.4385479   0.0464540
  -0.3860830   0.6152300  -0.6832471  -1.1329248   0.0377341  -1.0640002
  -0.0803220  -0.1730453  -0.0458383  -0.6907308  -0.1378403  -0.3249243
  -0.0332517  -0.6677972   0.5097863   0.1595051  -0.3967000   0.3231588
  -0.0186366  -0.4339403   0.0276487  -0.1846522  -0.7576139  -0.0654719
   0.0137541   0.1455212   0.0016369  -0.9883761   0.0683634  -0.4267166
  -0.2559963   0.7965557   0.7832326  -0.1878520  -0.1529630   0.1360201
  -0.0551045  -0.6881395   0.2438984  -0.0869273  -0.1691991  -0.1842838
  -0.0461096   0.2081564   0.1230531   0.1797283   1.0153850   0.4990258
  -0.1998232  -0.2877930  -0.2153037   0.0305796   0.2618944  -0.0410660
  -0.1459288  -0.4613932   0.9168776  -0.1998908  -0.5778893  -0.9205704
  -0.0412890   0.0491662  -0.0953881   0.6273197   0.2840682   0.2685268
  -0.8471809   0.8022819  -0.2255240   0.0682775  -0.2191736   0.2512375
   0.9998688  -0.8972115   0.6982136   0.0655271  -0.4493313  -0.9664176
  -0.0756975  -0.2390553   0.2620783   0.3646337  -1.0636877  -0.6129007
  -0.0793893   0.3989576   0.1832062  -0.1961341   0.1471320  -0.0547210
   0.2363428  -0.3182514   1.1829080   1.2258118   0.7747236   0.3899515
   0.2005949  -0.0061300   0.0095800   0.4452336  -0.6602098   0.0916426
   0.4154814   0.1458247  -0.5741415  -0.1762539   0.0142166   0.2016105
  -0.4820750  -0.0004903   0.0519924   0.0204995   0.1566145   0.1862971
  -0.0189712   0.0084474  -0.0633158  -0.2171653  -0.6005638  -0.3496945
  -0.2099509  -1.1991981  -0.8863984  -0.1290012  -0.2421490   0.1679379
  -0.6868311   0.0238276  -0.1555727  -1.5935124   0.3963087  -0.5025282
  -0.1920750   0.3061047  -0.1955764   1.1266950   0.1158695  -0.2435405
  -0.3790940   0.1476682  -0.2825434   0.0200005  -0.0022204  -0.4561826
   0.2388862  -0.3633786  -0.0618448   0.2404771  -0.7561526  -0.1858215
  -0.1807530  -0.0931988  -0.0900703  -1.0904213  -0.2408705   0.4290551
  -1.3306419   0.2493290  -0.6932379   0.0405768  -0.1031464   0.0753911
  -0.3706451   0.3850300   0.6355159  -0.5380955  -0.4727070  -0.5255666
   0.3605754  -0.4278899   0.1736958   0.2508147   0.7967055  -0.3475830
   0.4860660  -1.3802169   0.5510648  -0.0151361  -0.2046018   0.2080551
  -0.3637207  -0.3841502  -0.3260715   0.4447837  -0.3839067   0.9915518
  -0.0042098  -0.1119436   0.1379862   0.1525485  -0.1838730   0.6713979
   0.0497218   0.3977149  -0.0126831  -0.1229976  -0.2666133  -0.1438825
  -0.6577971  -0.3438642  -0.7986536   0.1330007   0.4108056  -0.1369621
   0.1330459  -0.1732472   0.0568390  -0.3109927  -1.4126323  -0.5681601
  -0.1860885  -0.4021360  -0.1072555   0.0350296  -0.2009665  -0.2745887
  -0.1800843  -0.4430712   1.0214579  -0.0147060   0.0817363  -0.3874901
   0.3728287  -0.2092925   0.1180967   0.9212558   0.2492908   0.1800436
   0.4930757  -0.4219739  -0.0370159   0.0225656   0.0959917   0.2829861
   0.0416933   0.1006543  -0.3129811  -0.4208496  -0.6917701   0.0542871
   0.3562443   0.1485760   0.1070203   0.8486750   0.1262709  -0.2193933
  -0.8704191   0.1776117   0.7976571  -0.2686264   0.0727986   0.1037722
  -0.4592856  -1.1033203  -0.0728147  -0.5505392   0.7578453  -0.8473143
  -0.3853533   0.1948343  -0.0817364  -0.4930774   0.4092113   0.3487962
  -0.3111541   0.0774539  -0.2979714  -0.0145103  -0.0019778   0.0320809
  -0.3075968   0.0560806   0.2078683   0.2287811   0.1311517  -0.2981890
   0.0115202  -0.2753511  -0.0141126   0.4635674  -0.0010525   0.9203767
  -0.3709135  -1.2636385   0.0527475  -0.0534893  -0.3586926  -0.2859966
  -0.2326800  -0.0777322  -0.2161495   0.4254816   0.5610140  -0.2625128
  -0.1844349  -0.2337481  -0.0784482   0.3177929   0.8754036   0.3309400
   0.0118335   0.2164772   0.0544549  -0.1112776  -0.1376238   0.1408427
  -0.6780461  -0.0182788  -0.2953790   0.6955184  -1.0686418   0.5104639
   0.1643088   0.0624412  -0.0715270   0.4502609   0.3701311  -0.6091425
   0.2745848  -0.3205328   0.0458677   0.1784022  -0.0056390   0.0223082
   0.6897411   1.0637355   0.1410353  -0.4539781  -0.3891638   0.1112260
  -0.1013230   0.3476072   0.0475008   0.0551036   0.6327439  -0.0440586
   0.6001019  -0.0781882   0.2762295  -0.2759804   0.1436551  -0.2333868
  -0.7082015   0.1055407  -0.1613147  -0.2330154  -0.0600521  -0.2721951
   0.0348748   0.1014282  -0.0747536  -0.8557392  -1.1008697   0.0679256
   0.7046584   0.5496518   0.4187359   0.3260807  -0.2905836  -0.1867772
   0.7451435  -0.4070730  -0.0880491   0.6903381   0.3386717   0.2725540
  -0.0433094   0.1404946  -0.2167859  -0.0714202  -1.3516120  -0.8587353
   0.0400611   0.8346308  -0.2871342  -0.1693735  -0.1478640   0.0338638
  -0.1868632   0.8353783   0.6740948   1.2219415   0.0576754   0.0545074
   0.4909953   0.1765436  -0.1994662   0.5428317  -0.6637216   0.0871500
   0.7660160   1.0145737  -0.5219188  -0.1402066   0.2951709   0.1455127
   0.2025438  -0.4551580  -0.2349741  -0.5537149  -0.1581550   0.8031360
  -0.0791326   0.2470834  -0.0369623   0.1304143   0.5833911  -0.0734271
  -0.9165630  -0.5770774  -1.1423551  -0.1656323  -0.0190468  -0.0642150
   0.3097775   0.1933296  -1.3596301  -0.4956329  -0.7906618  -1.0729332
  -0.0716952  -0.0996611  -0.1398944  -0.3093633   0.1373930  -0.1264091
   0.1592953  -0.0016582   0.3428486  -0.0568484  -0.1142624  -0.0273605
  -0.3789070   0.0470013  -0.7167890   0.8502029  -0.0255076   0.8734967
   0.1061951  -0.2107661  -0.2701302  -0.5470404   0.0665686  -0.5174355
   0.6144596   0.0727105  -0.0602181   0.3538144   0.1826460  -0.1497035
   0.5335900  -0.1212787   0.2760310   0.5377643   0.2775498  -0.2615349
   0.0156743   0.2193464  -0.1665437  -0.4547186   0.5111947   0.5825807
  -0.1792897  -0.8000273  -0.0943944  -0.1560012  -0.3915619  -0.1774930
   2.3411913  -1.2483224   1.7664736   0.3736682   0.4276687  -0.4026051
  -0.2782306  -0.2676304  -0.0032800  -0.4025143   0.3157552   0.5093991
  -0.4416918   0.5718398  -0.2519637  -0.1126690  -0.0549343  -0.2601622
   0.0743142  -0.3190881  -0.0208578  -0.2012071  -0.1278910  -0.4423122
  -0.2064283  -0.1551965   0.2044913   0.3333831   0.1645601  -0.2763136
  -0.1914234   0.2633865   0.1777459  -0.0185976  -0.1086805  -0.2079446
   1.1527433  -0.8417115   0.0805366   0.0453012  -0.2345730  -0.3365190
  -0.0208324   0.1475599   0.0927575   0.4516988   0.1240954  -0.7366486
   0.8066700  -0.3916976   1.4524435  -0.3105833  -0.0385831   0.1165519
  -0.2200705  -0.1465013   0.0750097  -0.6686866   0.3098847   0.2508277
   0.1423130   0.0775695  -0.0748474  -0.3648491  -0.1159034   0.2727034
  -0.4784081   0.1705284   0.6205786   0.0954168  -0.0893706   0.1649131
   0.9365016  -0.7632832   0.2027469  -0.4232896   0.7390897  -0.3235279
   0.4146311   0.0934603  -0.1834385   0.6490892   0.0412337  -0.1188679
   0.3349291   0.1065265  -0.1930046   0.0100337  -0.0823802   0.2162570
   0.0196743  -0.8491201  -0.3198668  -0.3794103   0.2458289   0.7852832
   0.1026805  -0.0106575  -0.1026068  -0.0527143   0.0543673   0.2708223
   0.7094591  -0.3139133   0.1003481  -0.0062524  -0.0952815   0.1063655
   0.0391522  -0.1349106  -0.2937499  -0.4559495  -0.3047277  -0.0964068
  -0.1507133  -0.1387520   0.0809222  -0.6715560  -0.0192865  -0.1000372
  -0.2175039   0.1402349   1.1517967  -0.2467384   0.0363109  -0.1490393
   0.0332513   0.3534810  -0.1811413  -0.4811063   0.2773542  -0.2894604
   0.0782424   0.2059244   0.0449130  -0.4918764   0.9061043  -0.0347060
  -0.0631193  -0.4310587   0.4771232   0.0205919  -0.2534867   0.2162751
   1.0547676  -0.9257795  -0.2506426   0.2131231  -0.0559796  -0.1538650
  -0.1612800  -0.0754265  -0.3195339  -0.1932444   0.8440342   0.2970963
  -0.2724838  -0.2185966  -0.2791963   0.3085457   0.2250010   0.2602900
  -0.7060307   0.2457078  -0.2026215   0.4596832   0.8192886   0.1153404
   0.0497315  -0.1075944   0.0402438   0.8098138  -0.2948545   0.1438766
   0.1939795   0.7420252   0.7502449   0.0110821  -0.2278855   0.1557977
   0.3730713   0.9467567  -0.5372954  -0.1318066  -0.1446151   0.2118004
  -0.0805648  -0.0426279  -0.1860984   0.0240851   0.2485400  -0.9627870
  -0.2256810  -0.3528374   1.9688917  -0.2171992  -0.3551837   0.1434437
   0.9316131   0.7474907  -1.0794685   0.1925393  -0.6145332   1.0405796
   0.2515188  -0.1823801   0.1936660  -0.0733192   0.0229229   0.2115359
   0.6859011   0.2428899  -0.1114756  -0.1207604   0.0986996  -0.0138544
   0.0556180   0.1347423  -0.1382563  -0.1350538   0.1135356  -0.1447038
  -0.0162686   0.2948574   0.3095650  -0.5742985   0.1793370   0.5886283
  -0.8246762   0.3309425  -0.6566538  -0.0779711   0.0548572  -0.2341733
  -0.9676698   0.5131756   0.7125240   0.4117703  -0.7262058  -0.1048624
  -0.0093356  -0.2092763  -0.0534483   1.2240016   0.6533360  -0.5988446
  -0.1484987  -0.0440134   0.2297401  -0.2041550  -0.1502057   0.3100031
  -0.9603084   0.1167003   0.8122362   0.3155805  -0.4504189  -0.0156545
   0.1162361   0.1210732   0.1001886   0.8135649   0.1008571  -0.2723281
  -0.2043856   0.4631612  -0.2539074   0.1978473  -0.2354785  -0.1574251
  -0.2417668   0.2986782  -0.2866183  -0.3932987  -0.1431631  -0.2926929
   0.1960749   0.1820157  -0.0301300   1.0920343   0.7531585  -0.1762264
   0.0358161  -0.0203692  -0.1070254   0.1217846   0.1159686   0.1828375
   0.7297272  -0.2863572   0.3592522   0.5504555   0.5214673   0.0789047
   0.3874032  -0.2155121  -0.1278020  -0.0875586   0.9002281  -0.6524214
   0.5899641  -1.0992162  -0.6148999   0.0274882  -0.0154888  -0.0065131
   0.8651841   0.0117141   0.4032049   0.3331983  -0.0077426  -0.6396681
  -0.2193669  -0.2573726  -0.0331568  -0.1047504  -0.6237737  -0.0220745
  -1.0134200   0.1882664  -0.2285336   0.0417841   0.1101182   0.0811892
   0.5673686   0.1732010  -0.8032696  -0.3404530   0.3137462   0.2734461
  -0.0162137   0.0814803   0.2567887   0.1090823   0.5714455  -0.0548265
  -0.4757255  -0.5562825   0.3348871  -0.0727893   0.0173762   0.0222006
   0.0065405   0.1057292   0.0082962   0.2836012  -0.4835877   0.6674190
  -0.1663849   0.0410144   0.1557695  -1.5123727  -0.5640065   0.4942962
   0.5967655  -0.4821034   0.2787510  -0.0517055  -0.1049686  -0.0045837
  -0.1195218  -0.1062928   0.3665420   0.3665399  -0.4031219   0.3816477
   0.1077777   0.3153131   0.2832459  -0.2802909   0.5096717   0.3820498
  -0.2377556   0.4140623   0.3000194   0.0852629  -0.0046283  -0.0458440
   0.0128242  -0.3421309   0.0756256  -0.1286478   0.3286894   0.1643520
  -0.2492808   0.0445051   0.2111192   0.6396105   1.2777185  -0.3193545
  -1.1281273   0.4545855   1.4604040   0.2223691   0.1339178   0.3999257
  -0.5598735  -0.3007808  -0.1144480   0.6510850   0.6552246  -0.2330119
  -0.2992854  -0.0947711   0.0758985  -0.4977496  -1.0448974  -0.1686053
   0.3045858   0.6192847   0.5340929   0.0269995   0.0457465   0.0637637
  -0.6903319   0.0386053   0.3718535  -0.1207352   0.0236646   0.1092950
  -0.0753470  -0.1805065  -0.1043172  -0.1949725  -0.3153047  -0.2984643
   0.0717415  -0.2395488  -0.3193954   0.0421880  -0.1131652  -0.0437934
   0.1311642  -0.8651389   0.0732053  -0.0678281   0.0728402  -0.5084298
  -0.2806490  -0.1604506   0.3416252   0.5155835  -1.7555060  -0.2804908
  -0.8912581  -0.0610622  -1.2371912  -0.1628056   0.1288071   0.4832920
  -0.0501498   0.0537732   0.1216452  -0.1447949   0.5504615   0.5113252
  -0.2213111   0.0400224  -0.0346669  -0.1496362   0.0577262  -0.0526625
  -0.1069134   0.5050513   0.1773919   0.0133953  -0.1093875   0.2383368
  -0.1400051  -0.1706796  -0.4302389  -0.2960150   0.4935169   0.2886335
  -0.1630087   0.0023249  -0.1059254   0.3305826  -0.4042029   0.8765654
   0.1839640   1.0967693  -0.1117214   0.1379153  -0.1492599   0.1692750
   0.3722264  -0.2216591   0.6560803   0.0679442  -0.3086929  -0.1662978
   0.2059813  -0.1506888  -0.2735456   0.4491337  -0.6903598  -0.3378733
  -0.1160417  -0.0566220   0.8573052   0.0358842   0.0791662  -0.0567250
  -1.0951765  -0.0011632  -0.0082635   0.5673510  -0.1086122  -0.7523541
  -0.1611296   0.3991675   0.0647197  -0.9854009   0.1641926   0.8610049
  -0.1959191  -0.4522957  -0.3474332   0.1628729  -0.2668985   0.0416233
   0.3142104   0.1248637   0.8998045   0.3631789  -0.4097627   0.5041433
  -0.0414157   0.0355367  -0.0635837   0.6728384   0.3193219   0.6410442
  -1.4079412  -0.1482331  -0.7429776  -0.1276003  -0.0400520  -0.0986746
   0.1885858   0.7876974  -0.4413511   0.5816616  -0.8725682  -0.1997744
  -0.1155537  -0.1325059  -0.2043684  -0.0701765  -0.6324559  -0.0634184
  -0.1735826  -0.0176244   0.0873768  -0.0007097   0.0430163   0.0075304
   0.3492276   0.6814563  -0.3701125   0.2004998   0.3514611  -0.8911473
   0.6328442  -0.0112563   0.2983717  -0.0627888  -0.2964888   0.3913462
   0.2396272   0.2882792   0.0589855  -0.1447061   0.1226896  -0.1612137
  -0.2529424   0.6919787   0.5804547   1.4111444   0.1977773  -0.0886110
  -0.0531783  -0.0843364   0.1295258  -0.9414631  -0.5020505  -0.3350376
   0.6208020   0.3015177   0.6319012   0.3467298   0.4964226   0.0597102
   1.3343794   0.1252246   0.0795727  -0.2971404   0.6862223  -0.0028376
   0.0273739  -0.3291265  -0.1074030   0.1242043  -0.4924497  -0.1232888
   0.1148042   0.4828813  -0.3460320   0.0664079   0.1600274   0.3094143
  -0.3295565   0.0358305   0.5683196   0.1165597  -0.2799575   0.0048789
   0.0983908  -0.0520245  -0.0382266  -0.1560655  -0.2545420   0.7429098
  -0.0383848   0.4207287   0.4402379   0.1971983   0.0349574  -0.0058754
   1.0103557  -0.7815770  -0.0271569  -0.8381564   0.8056094   0.6989800
   0.0996479  -0.1789744  -0.4897967   0.0516904  -0.1621038  -0.5240009
   0.1123529   0.1221745  -0.4442095  -0.0395432  -0.0485660  -0.0641987
   0.5976605   0.0766413   0.4374326  -0.1634201  -0.0158027  -0.1652877
  -0.2104386  -0.4533036   0.0063699   0.5902248  -0.3985388   0.1418948
  -0.0967083  -0.6567791  -0.9759595   0.0222037   0.1562279  -0.0844436
   0.0143056   0.2202620   0.1688534   0.0357385   0.1569362  -0.0052283
  -0.0041001  -0.1672498   0.1063854   0.3080957  -0.0012407   0.1205035
  -0.7624559  -0.8159342  -0.5827844  -0.2326302   0.2381031  -0.2330661
  -0.0474267   0.3480144   1.3694680   1.1835081   1.5016183  -0.1514923
  -0.2067759  -0.4171151  -0.3250595  -0.4453727  -0.5584641  -0.0237829
  -0.0931873   0.1007092  -0.3069962   0.1239885  -0.1570414  -0.2146540
   0.2457073   0.1671132  -0.5637798  -0.0564952  -0.6555637   0.1911267
   0.1032542   0.0910824  -0.1879920  -0.5093272  -0.0244700  -0.3784635
  -0.1757742   0.6444596  -0.4623649   0.1830713  -0.1088123   0.2762263
   0.4324960   0.6462771  -0.4307102   0.6670272  -1.8111110   0.1352235
  -0.0322784   0.2375358  -0.0714893  -0.3128004   0.5682657   0.3442461
  -0.2193878   0.4816611   0.1856976  -0.0054998  -0.0782368   0.4287499
   0.1286360  -0.6908249  -0.2802222   0.9595840   0.1061268   0.8239905
  -0.2724651  -0.0002604  -0.0920207  -0.4268647  -0.3210317  -0.0384473
  -0.0162288   0.1352863  -0.4077030   0.0574510  -0.1958095   0.0551198
  -0.7275313  -0.4203954  -0.0648804   0.4266866   0.5463552  -0.2181747
   0.2571240  -0.2465429   0.0519932   0.6618225   0.4560252   0.2209149
   1.1341800  -0.2377352  -0.9059973   0.0749547   0.0142080   0.0955107
  -0.1853186   0.7378078  -0.1335108   0.2508810  -0.3662785  -0.0387447
   0.2879501   0.3755147   0.2500933  -0.2973069  -0.7221772  -0.1604650
   0.3686793  -0.2249958  -0.0835855   0.0512611  -0.0824531   0.2638129
  -0.5059813  -0.0642446   0.3617416   0.7424376   0.1937680  -0.4074071
   0.1625935  -0.1972124   0.5479149  -1.0745509  -0.6789501   0.6217854
  -0.3796715   0.6153714   0.3156798   0.1306155   0.0408914   0.1721999
  -0.3492897   0.2491791  -0.2365263   0.1388182   0.5158432   0.6131155
  -0.1105904   0.0713310   0.0103332   0.3329484   0.3214280  -0.3684644
  -0.0691924   0.1242124  -0.0878066  -0.0172982  -0.2785667   0.0045919
  -1.3412780   0.0418288   1.1897280   0.0674761   0.4225728   0.7847781
   0.3940401   0.2830573  -0.2965039   0.4949689   0.4011919  -0.3033621
   0.6237580   0.1112327  -1.0168470  -0.0300843   0.2229072   0.2373552
   0.3680564   0.8517361   0.5622823  -0.0061457  -0.1858287   0.1365481
  -0.1957241   0.2487119  -0.0135220  -0.5068443  -0.1683379   0.6536457
  -0.3267137   0.9105608   0.0988179   0.3408173   0.1827649   0.1513103
  -0.2080505   0.1043887   0.1573071  -0.2416136   0.2632049   0.2858776
   0.2562058   0.2886128  -0.1273928  -0.0244506   0.3913618  -0.1200368
  -0.2336328   0.1839181  -0.3576530  -0.2280592  -0.1593347  -0.1816975
   1.1653451  -0.3025759   0.1255137  -0.7021519   0.9423225   0.6714319
  -0.1223255   0.0133766   0.1584394   0.2700130   0.4474496   0.0471790
   0.7569351   0.9357548  -1.1005843   0.0727185  -0.1313163   0.3301085
  -0.4005163   0.0234663   1.6571107   0.7401799   0.1816052   0.6462683
  -0.2791925   0.0197176  -0.0308614  -0.2848354  -1.2716970   0.3667921
   0.4889020   0.2213673   0.0896441   0.1086807   0.1717158  -0.1085214
  -1.0267238  -0.0470308   1.3619430   0.5806687   0.3266273  -0.8527499
   0.0005599  -0.1548329   0.0845952  -0.0786076  -0.1692173   0.1626493
  -0.2201890  -0.1701775  -0.1105812   0.0846795   0.0533746   0.2411330
   0.1145687   0.2519596   0.7238472   0.4397800   0.7203879   0.9599971
   0.1290553   0.1537843  -0.0140646   0.0345913   0.1076093  -0.6509165
   0.1570208   0.0078463   0.5241904   0.3907879  -0.2827466  -0.1212783
   0.5412500  -0.4678766  -0.1408395   0.5716018  -0.3928783   0.7674481
  -0.3707499   0.0134325  -0.2149886  -0.9141368   0.3264240   0.5184687
  -0.1272564  -0.4820415  -0.3314129  -0.0244436  -0.1280459  -0.2110740
   0.6411898   0.4526528   1.8076090  -0.3952659  -0.6044604  -1.6355780
  -0.0506526   0.0480579   0.0067690   0.3070861  -0.1356126  -0.4752198
   0.1642825   0.5111053   0.3390860  -0.3424616   0.0593605   0.1026538
   1.1922943  -0.1131656  -0.7065088  -0.3127419   0.0499289   0.0807509
  -0.1694527   0.1326337  -0.2064144   1.7477579   1.4768409   0.9187284
  -0.2401712   0.5641490  -0.3477286  -0.1522858  -0.3057990  -0.1856425
   1.3233536  -0.5400175  -0.6700315   0.5020106   1.1207803  -0.2618646
   0.1389728   0.2646627  -0.2756352   0.1114991  -0.6115272  -0.5131554
   0.0135896   1.0361940   0.7118322  -0.0109866   0.0642138  -0.0961530
   0.1618698   0.2055037   0.0312881  -0.6319648   0.0511811   0.1276473
  -0.1604105  -0.1002424  -0.1181960  -0.0293673  -0.8288787   1.0080579
   0.9455594  -0.3983614  -0.5799978   0.0842910  -0.3672585  -0.1028455
   0.6480383  -0.9873581   0.6622902  -0.4357766  -0.9487851  -0.5662003
  -0.2013208   0.2035900   0.0460340  -0.1546390  -0.0511404   0.1479916
  -0.3315165   0.5863098  -0.0831114  -0.0255944   0.1610979   0.0379849
  -0.6474900  -0.3968357   0.1073720   0.5625226   0.0647609   0.6081538
  -0.1046929  -0.2827966   0.2323188   0.4886361  -0.2376467  -0.7191309
  -0.3916427  -0.0426101  -0.2166898   0.0878215   0.1310547   0.0534950
   0.0765218   0.1272486   0.1064797   0.6840276   0.3451140  -0.6347707
  -0.1394815   0.2835379  -0.2396121  -0.2568333  -0.0543303  -0.4789956
   0.7373617   0.1930657  -0.1338489  -0.0156681  -0.0546200   0.0149096
   0.1483572  -0.6157239   0.4195324   0.0658132   0.6965261  -0.9447119
   0.2241579   0.2008784   0.0888159   0.3608782   0.8917783  -0.5005578
  -0.4514827   0.2062937  -0.0988739   0.1736720  -0.0181094  -0.1144671
   0.5463007   0.0626771   0.0565087   0.1771620   0.0669457   0.0200295
  -0.1168897  -0.0703904   0.0857689  -0.1692619  -0.1623388   0.0785264
  -0.8232146  -0.4958592  -0.9739107   0.2480617   0.2333227  -0.2196139
  -0.1616000  -0.3835172   0.0999660  -0.2255953   0.8348246  -0.1991787
  -0.0860352   0.2038998   0.3217683  -0.0708014  -0.0327605   0.1867319
   0.6514350   0.3730485   0.3327213  -0.1799317   0.1696927   0.0890299
  -0.4751370  -0.3982121   0.0310627   0.0309029   1.8028899   1.0127684
  -0.0201111   0.0687733   0.0843058  -0.4426655  -0.1878825   0.6576131
   0.2143757   0.2181071  -0.2396942  -0.2211045   0.3385268   0.0850349
  -0.6147691   1.1445694  -0.8646960   0.5907752  -0.3695649  -0.0284218
   0.1039219  -0.0445947  -0.3802410   0.1656986  -0.4664901  -0.2786651
   0.5380931   0.2852271   0.8262341  -0.1271969  -0.1000492   0.0431160
  -0.9934913   0.1037122  -0.1285287   1.3335039   0.3138077  -0.0625459
   0.0997443  -0.0357759   0.2218676   1.2103959  -0.1753241  -0.4092904
   0.3661834   0.0680544  -0.1575462  -0.0254586  -0.1582557  -0.1174254
  -0.4858222   0.0694624   0.2392080  -0.2609074  -0.2386955  -0.6286306
  -0.0310706   0.1301466   0.1916232  -1.1409270   0.2989857   0.0139303
  -0.5060581   0.2867718   0.3108493   0.0987284  -0.1713162   0.1251780
   0.4271908   0.2473243   0.2768350   0.1728294  -0.1908319  -0.2293136
   0.2775205  -0.0809743   0.1121770   0.4706397   0.8927181   0.7651390
   0.7067973   0.1847475  -0.4253661  -0.1753755  -0.0374315  -0.1412803
  -0.1821732   0.0452915  -0.0314920   0.0325761   0.0490116  -0.5166098
   0.0294886   0.2425390  -0.0392578   0.1024925   0.5394821   0.4604352
   0.0057402   0.1454316  -0.1978666   0.1992905   0.1812476   0.0023878
  -0.0363563  -0.0655465   0.1390932   0.3212900   0.2361452  -0.1229047
   0.0706661  -0.2355252   0.4710647   0.8180093  -0.1033387   0.9332271
  -0.5448157  -1.1346153   1.2306339   0.1680897   0.1213160  -0.0660429
  -0.1492847  -0.2701846   0.8223108  -0.2367788   0.4083028  -0.7325996
   0.0560016   0.1334304   0.2724256  -0.1316996   0.1690100   0.3150001
   0.3878271   0.1081304   1.2976997   0.0555046  -0.0240648   0.2411468
  -1.2304554   0.7412408   0.7491060   0.0076420   0.0178708   0.2451220
   0.2554294   0.3796689  -0.1950253   0.2373966   0.4178020  -0.2875448
   0.3508047   0.4489105  -0.2240506  -0.4302300  -0.0533450   0.0247938
  -0.1275940  -1.0449866   0.1878359  -0.1349437  -0.7300760   0.0001199
  -0.2064591  -0.0658053  -0.0078408  -0.8850371   0.5589844  -0.3263751
   0.8925287  -0.3389958  -0.4135589  -0.2435642   0.1868525  -0.0563252
  -0.0789801   0.1008606  -0.2387041  -0.4579612   0.2567003   0.1497868
   0.1048235   0.1506819  -0.3468420   0.0506085  -0.2220397   0.2406304
  -0.2703376   0.3864807  -0.6582661  -0.1321082  -0.0344910  -0.0027164
   0.9065651   0.5878171  -1.6653064  -0.6346230  -0.3708208   1.3559154
   0.1816020   0.1333004  -0.0610819  -0.2974472  -0.0441624   0.4629461
   0.2666730   0.1654110  -0.1466183  -0.0900174  -0.1815516   0.1323570
   0.3694676   0.1452779  -0.1006009   0.1132618  -0.3640768   0.6771437
   0.1764389  -0.0043000   0.0480515   0.3371448   0.2247040   0.1589228
  -1.1046760  -0.4347643   0.1199074  -0.0832740  -0.2240472  -0.1840201
  -1.0236762  -0.1142567   0.2388519   0.4126968  -0.0190503  -0.0684738
   0.1587726   0.1097322   0.0323225  -0.9207514   0.7116182  -1.3989389
  -0.0434185  -0.1800750   0.1682055   0.2583705  -0.1555378  -0.2113415
   0.6239098   0.0439399  -0.4031711   0.3739990   0.0694445  -0.0464821
  -0.2715046   0.3631379  -0.2746978  -0.6246675  -0.4999898   0.5381034
   0.0279293   0.0842557  -0.1657495   0.1966639   0.0198979  -0.3041575
   0.2661771   0.6622203  -1.3172950   0.0384533  -0.0542308   1.9612897
  -0.1470399   0.0421654   0.2997913  -0.2246167  -0.2265469   0.4103913
   0.2533454  -0.1954468   0.3910105  -0.1097959  -0.0498543   0.2809504
  -0.6953557  -0.5062534   0.3119798  -0.4619912   0.5381141   0.0627880
   0.0854290  -0.0639575  -0.5493818  -0.4752994  -0.1095033  -0.5717752
   0.4172359   0.6791763  -0.4063589  -0.0316507  -0.3581323   0.1356320
   0.9447821  -0.0571967   0.4525318  -1.1723888  -0.5833753  -0.1369119
  -0.3198045  -0.0556298  -0.1316165  -0.3615437   0.0916656  -0.0524646
  -0.3939805   0.0748569  -0.3194895   0.4103069  -0.2093117   0.0603410
   0.4015360  -0.1687196   0.1022879   0.2671194   0.0567132   0.3312005
  -0.0859845   0.0848423   0.2811265   0.1561646  -0.1257572   0.0718793
   0.4900011  -0.8540835  -0.0227774  -0.2328234  -0.1184414  -0.1636250
   0.0397613   0.6794193  -0.2142745  -0.6662198   1.1882041  -0.0772155
   0.3867505  -0.0897561  -0.1692417   0.4271706  -0.4963666  -0.7372114
  -0.1725217   1.3098812   0.4785426   0.1948735  -0.1002336   0.2703316
  -0.2459336  -0.0883012  -0.4094136   0.4064657  -0.5850474   0.2693084
  -0.0358866   0.2712151  -0.0182879  -0.0860000  -0.0491926  -0.0533217
  -0.1081291   0.0030585  -0.1253838  -0.1452761   0.0085037   0.2219727
   0.1630429   0.3451653   0.1325261  -0.2697794   0.0824597   0.0376050
   0.1882194   0.0634232  -0.2398765   0.2943628   0.6085465   0.6515648
  -0.1047117  -0.0652227  -0.9374804  -0.0989303  -0.0908644   0.5384070
  -1.1417893  -0.4427936   0.8611749   0.1801140   0.1263868  -0.1216148
  -0.0354420   0.0627324   0.1120779   1.3720212   0.0867270  -0.8712499
  -0.2715916  -0.2965224  -0.1594788   0.2045197   0.0544633  -0.2126180
  -0.0829321  -0.8202723  -0.9135256   0.4711537  -0.0707704   0.1974917
   0.0727668  -0.2383093   0.2038682   0.4142311   0.0851553   0.0377531
   0.0068764  -0.8413662  -0.1216793   0.0795644   0.2355589  -0.0288368
  -0.2190117   0.5953789  -0.6547892   0.3507358  -1.3070594   0.8667978
   0.0585597   0.4067883   0.1871585  -0.0695478   0.9803735  -0.3283005
   0.0224280   0.4340752  -0.1911664   0.1415301   0.1232300   0.0792493
   0.1503892   0.2039892   0.0539727   1.1376271   0.0654596   0.1473187
   0.0586505  -0.1561272   0.0718308  -0.2520486  -0.0157139  -0.0766411
   0.1745616   0.0857321  -0.1783826   0.0445138   0.0152454  -0.0710757
   2.0902272   1.0091553  -0.0253535  -0.2325087   0.7468303   0.0486582
  -0.0134250   0.2398546   0.2265067   0.1362998   0.0907202   0.1281569
   0.4092673  -0.4653281   0.0932738  -0.2859703  -0.0668197   0.2942258
  -0.4693851   0.0160811   0.8371641  -0.6710781   0.1608191  -1.5929367
   0.2582118  -0.1166249  -0.3138938   0.2385986  -0.2227567  -0.0965203
   0.3546931   0.0396367  -0.3930465  -0.0259487  -0.4516349  -0.1093508
   0.0732101  -0.3476636   0.1817537  -0.5259387   0.4430728  -0.9579555
  -0.0902783   0.3960527  -0.0431016   0.6977062  -0.9087656  -0.2362763
  -1.0723832  -0.5969196  -1.0620129  -0.3124874  -0.0227861   0.1816643
   0.1754057   0.0413595  -0.3123994  -0.0401197   0.0875500  -0.0384985
   0.1927052  -0.0655349  -0.0734653   1.0890867   0.6046143   0.4588402
   0.7005480   0.1776225   0.3274002  -0.3394076   0.3022318   0.0641763
  -0.3347244   0.4304490   0.0637959  -0.1642061   0.2362034   0.1855612
  -0.1620154   0.1525109  -0.1371295   0.4799106  -0.5938468  -0.8936874
  -0.1062717   0.0323469  -0.1936440  -0.3636965  -0.0591567  -0.0241800
  -0.0362775  -0.4101009  -0.5190590   0.5637119   0.4677252   0.3485041
   0.0582725   0.0182766   0.0773272   0.2603308   0.0044548  -0.2801917
   0.5916791   0.4352723  -1.2987302   0.0056260   0.1705616   0.3474567
   0.1049784  -0.3021677   0.9611491  -0.2560595  -0.1747704   0.2879672
   0.0737946  -0.2876397   0.1797579   0.2129070  -0.6544028  -0.0049976
  -0.2633117  -0.3803974   0.2071523  -0.2517291  -0.1146969   0.0875925
  -1.6471314   0.6595684   0.2668289  -0.6758559   0.5275439  -1.1026153
  -0.2960119   0.2223136  -0.0621034  -1.1898330  -0.4071622  -1.9770046
   0.8435249   0.5533477   1.0581654  -0.3704171   0.3195112   0.2909987
  -0.6164833  -0.1482542   0.3115893  -0.5471748   0.5759370   0.9543331
  -0.1528448  -0.2663977   0.2403913   0.3741042   0.2565760   0.7724987
   0.0259354   0.0746682  -0.0749622   0.1564777  -0.2228445   0.3841705
  -0.1541395   0.1177477   0.5233646  -0.7150117   0.4018386   0.5275147
  -0.1469539  -0.3506406  -0.2331072  -0.7601728  -0.3834510   0.7635165
   0.3266971  -1.3135070   0.0722390   0.0415069   0.0415924  -0.1237898
   0.2767250  -0.3184207  -0.2276106   0.0752589   0.0092094  -0.1500372
  -0.1743623   0.3073668   0.2007292  -0.0433116  -0.7708754   0.8650651
  -0.1993040   0.2264592   0.1957101  -0.0733353   0.1210379  -0.0262846
   0.2874119  -0.2476548  -1.1301872  -0.7548464   0.4540935  -0.4726429
  -0.0978019   0.3206243  -0.2905275  -0.2382949  -0.1015661   0.7109086
  -0.4631608   0.4646457  -1.2418634   0.1610140  -0.1095985  -0.0722929
  -0.9333376   0.2184121  -0.2105722   1.1269625  -0.0332705  -0.2131997
   0.0335734  -0.2581103   0.4215855  -0.4971811   0.0276185   0.2832609
  -0.7122902  -1.1111552   1.0835814   0.1053689  -0.0443047  -0.0828805
  -0.5053539   0.2254624   0.6592471  -0.6358224   0.0790956   0.0627399
  -0.2271160  -0.3612731  -0.0306463  -0.2458959  -1.1887549   0.0045121
  -0.0642318   0.2115179  -0.4017573   0.1500115  -0.0820297   0.1234553
  -0.1625810   0.4843462  -0.5923403  -0.0451241   0.4043306   0.8671806
   0.1140509   0.1379264  -0.3427246   0.1835380  -0.0708636  -0.1186721
   0.1639479   0.0303531  -0.4844515   0.1335344   0.1410812   0.0851563
   0.2159966  -0.0354877   0.1194294   0.6155895  -0.5941596   0.1361592
   0.0455096   0.0022516  -0.0778257  -0.2773100   0.4742318  -0.9637301
  -0.0244634   0.3041265  -0.3269269  -0.0554543   0.0169638   0.0022094
  -0.2946208  -0.1577805  -0.3252109  -0.1379443   0.0551839  -0.0871954
   0.1430562   0.0647190  -0.0024090   0.1045546  -0.0518197  -0.0871924
   0.3630378  -0.2834165   0.0220395   0.1065071   0.0536208   0.0133581
   0.4733491  -0.4875713  -0.6762543   0.4484338   0.8812412   0.3055714
   0.0252572   0.3284628  -0.1020255  -0.0693388   0.5202111  -0.3851046
   0.1656166   0.2616864  -0.1118753  -0.0896140  -0.2170454  -0.0232392
  -0.5838994   0.7250303  -0.0310673  -0.5774750   0.8004345   0.3233918
  -0.2043584  -0.0936693  -0.1375258   0.4169723  -0.2564230  -0.1412068
  -0.0938641   0.0257462   0.0189530  -0.0039198   0.2508580  -0.3693293
  -0.8320319   0.4429386  -0.1621933   0.7437617   0.0378813  -0.4260227
  -0.1270979   0.0055748   0.1737665  -0.0206093  -0.6095834   0.0877693
   0.1958567   0.0200684   0.2361076  -0.0754927  -0.1631057  -0.0520722
   0.6549717  -0.9070364   0.6656375   1.1703122  -0.6304059  -1.2348652
  -0.0365360   0.3079660   0.0075683   0.3760610  -0.5166013  -0.4570667
  -0.5237089   0.6733823   0.5747226   0.1556100  -0.2858999  -0.1844260
   0.6421806   0.1329165   0.0883829   0.1806939  -0.2039420  -0.0719172
   0.2124397  -0.0108402   0.2388152   0.4278003   0.3766585   0.7040389
   0.2637506  -0.6193505  -0.0100027  -0.0428162  -0.1110634  -0.1247912
  -0.0984769   0.1280904  -0.4485673   0.7702154  -0.0551828   1.0805720
  -0.1093615  -0.4246759   0.0668660  -0.6292098  -0.1053125  -0.3210864
  -0.0600496  -0.3444864  -0.1570901  -0.0494860   0.2063709  -0.1050600
  -0.4532414   0.9068943   0.7696245   0.0827801   0.8147619   0.0917597
  -0.0383378   0.0038500  -0.2073257  -0.3408728   0.1301702   0.0633910
  -0.6891608  -0.2143624   0.8444158  -0.1317402   0.2162105   0.0931497
   0.3798831   0.4682910   0.4697097  -0.1928028  -0.6227944  -0.0379551
  -0.2502343   0.0108798   0.4307225  -1.5956112  -0.1494409  -0.5972475
   0.9068742   0.2178618   0.0399475   0.0385635  -0.0943401   0.2100136
   1.1723208  -0.1434986  -0.1058581   0.2288641  -1.0056866   0.0886813
  -0.1015792  -0.0695338   0.1424542  -1.2017098   0.2320052   0.0453107
   0.4714908   0.6630650  -0.6127949  -0.0670574  -0.0951413  -0.0397759
  -0.1049662  -0.0518998   0.0569146   0.2157174  -0.2650963  -0.9364985
   0.0484395   0.0493186   0.0636913  -1.4154501   1.1640460   0.0643300
  -1.0583816  -0.5195614  -0.1143120  -0.1415993   0.4304315  -0.0616382
  -0.3092053   0.1587617  -0.5591069  -0.3457842   0.0940501  -0.6824407
   0.5722660   0.0893799  -0.0762974   0.8583342  -0.6503118  -0.3435068
   1.0104782   0.3084632   0.3269028   0.0809838  -0.1213315   0.4447274
  -0.2713612  -0.3902296  -0.1628804   0.0377869   0.0013383   0.9931625
   0.3346167  -0.2214438  -0.2212022   0.1422839   0.0093565  -0.4708706
  -0.4396419   0.8751701  -0.9628060   0.2579529   0.0011222  -0.0223951
  -0.2867908  -0.4022850  -0.1690384   0.1930108   0.2638868   0.3125408
   0.1318651  -0.2719759  -0.1394369   0.1609242  -0.2184210  -0.1042467
   0.5580397   1.4733962   0.6285321   0.1120652  -0.3840159  -0.2685395
   0.1170904   0.3726817   0.6658755   0.1294325  -0.2508253  -0.1850224
   0.0988391   0.1953480  -0.1067692  -0.1580691  -0.0250703  -0.1835976
   0.1372172   0.2423016   0.1969209  -0.0994694  -0.0925670  -0.3109027
   0.6823422   0.1165646  -0.5600675   1.7310365   0.1102867  -0.9336448
  -0.1483190  -0.1715593   0.1373061  -0.1398163  -0.1739094   0.0446130
  -0.1179729   0.5156845  -0.2094674   0.1625273  -0.1352156   0.0062045
  -0.4460315   0.2616506   0.0955370   0.8075058  -0.4231264  -0.1594523
  -0.1826407  -0.3655232   0.1568828  -0.6917381   0.1563622  -0.1313209
  -0.7911595   0.2092830  -0.1560179  -0.1583209   0.1391018   0.0357189
  -0.6057292   0.3253927   0.9991839   0.6833459   0.8120675  -0.0061022
   0.0869519   0.2770790  -0.1951088   0.2653701  -0.0858481   0.2643801
   0.6001522   0.1457174  -0.0484242  -0.2097281  -0.1468536   0.0688536
  -0.2560450  -0.0418564   0.2489194  -0.1718851  -0.1775398  -0.0665318
  -0.0499056  -0.1194931  -0.3433996  -0.4808827  -0.1795598   0.0717412
   0.4258543   0.0715232   0.0072767  -0.0122148  -0.0648756  -0.1091188
  -0.1423214   0.2028258   0.1219322   0.6480263  -0.1198176   0.2482957
   0.3908124  -0.0220080  -0.0506588   0.7510812  -0.2725624  -0.0105765
   0.2158380   0.3824971  -0.1270789  -0.0108216   0.1480226   0.3725561
  -0.2328379  -0.2386266   0.3980311  -0.3353174   0.4184503   0.1579103
   0.2840982  -0.2688765  -0.1697625   0.2539464   0.5590194   0.2007943
   0.4927616  -1.0519761   0.5713730  -0.2615596   0.2469200   0.2009393
  -0.7564041   0.2571992  -1.0589828   0.1682527  -0.6556962   0.8851673
  -0.1810905  -0.3175628   0.1446502  -0.6003257   0.0978293   0.1341539
  -0.7609596   0.2357465  -0.3242732   0.1522246   0.0648221   0.2131020
   0.2541148   0.3632825   0.9940691   0.1288089  -0.8088640   0.1221071
   0.0782299   0.1073155   0.1324365   0.1180135  -0.5415464   1.1846653
  -0.9530199  -0.0807224   0.0618855   0.1297563   0.1706042   0.1777270
  -0.1428862  -0.1435912   0.0697052   0.4088244   0.4290346   0.4756971
   0.0140241  -0.1740093  -0.1265440   0.2145532  -0.1128385  -0.2357512
   0.4331380   0.0653754   0.0150237  -0.2554205   0.1197405  -0.0227675
  -0.0535240  -0.1767345   0.0483146   0.0551989  -0.4229989   0.1315837
  -0.0702371   0.1228749  -0.1747628  -0.1184216   0.2246146  -0.2098334
   0.0432117  -0.1335136  -0.1018410  -0.0372891   0.1518003  -0.4040136
   0.0930817   1.1483075   0.8043716  -0.2150035  -0.3545976  -1.2209732
  -0.3473010  -0.1540830  -0.0532929  -0.7084408   0.0747246   0.0094486
   0.8815624  -0.7705001   0.1588464  -0.1118698  -0.1346269   0.2005597
   0.5085476  -0.4524847   0.0917647  -0.5505936  -0.5808714  -0.5732004
   0.1097901  -0.0682486  -0.1067654  -0.0846232   0.8617504   0.0875212
   0.7012783  -1.0026592  -0.0009088   0.4357308  -0.0050263  -0.2010526
   0.1040573  -0.6534768   0.5435840   0.7820009   0.0209869  -0.0009286
  -0.2323092  -0.0543484   0.0763385  -0.3314465   1.0049348   0.5834555
   0.3629402  -0.0288665   1.0807482  -0.0593166   0.1122712   0.0279899
   0.4064265  -0.4532838   0.1146825  -0.5352531   1.0731060  -1.1918875
  -0.0274299   0.1702098   0.1028232   0.2731175  -1.0644847   0.3679603
   0.4083861  -0.0719742  -0.0425057  -0.0552249   0.1221031   0.3359741
  -0.4634266  -0.3387703   0.0519735   0.5143291  -0.1392833   0.4459893
   0.1060126  -0.0188410   0.0725072   1.2624408   0.4263459  -0.9895230
   0.3053326  -0.4619570   1.2854656   0.3334611  -0.3166771   0.0807223
   0.8330877   0.1797626   0.7795036  -0.5245933  -0.6905883   0.5423533
   0.2026718   0.0126667   0.2815544   1.0830482  -1.1902132   0.7606911
   0.5590137   0.8487370  -0.1685770   0.2579392  -0.1519449  -0.0345177
   0.7874425  -0.1488189   0.1830256   0.4389442   0.1367089   0.0936280
  -0.0654211  -0.0780150   0.0940841   0.5536035  -0.2034542  -0.5825858
  -0.0863316  -0.9719556   0.3740871  -0.1847187   0.2431403   0.1167192
   0.2710038   0.0978691  -0.4255270  -0.4006696   1.0218081  -1.0358979
  -0.2854357   0.2109561   0.1683084   1.6990575  -0.3054913   0.2590642
  -0.0958559   0.3877242   0.0726418  -0.1069110  -0.1958790  -0.0433957
  -0.0064814  -0.1421371   0.0032239  -0.4720278  -0.4608641   0.4889501
   0.4114216   0.1267601   0.0024495   0.4674052  -0.8226378  -0.1487032
   0.7321928   0.2512789   0.8884916   0.0604725  -0.2909503   0.0376607
   0.1181482  -0.3214717  -0.3233962   0.7350365   0.2949417   0.0129891
  -0.1449371  -0.0675233  -0.0098167  -0.2380166  -0.1786606   0.2594902
  -0.5513755   0.4262204   0.5962674  -0.0628946   0.0614663  -0.2335764
  -0.9527534   0.0443625   0.2564792   0.6650425   0.6826132  -0.8375648
   0.3502230   0.2319619   0.2838602   0.6525287   0.3669758  -0.1093127
   0.8789142  -0.4455073   0.6110678  -0.0623465   0.0086100  -0.0476171
  -0.5946205  -0.8645886  -0.2654355   0.6716489   0.2291584   0.4780039
  -0.1236897  -0.4391146   0.3062122  -0.5857531   0.6533278  -0.9389491
   0.1183472  -1.1892789   0.6647462   0.0476294   0.2658836   0.2735546
   0.3546492  -0.7319196   0.8916352   0.0485616   1.2193712  -0.1486032
  -0.3385786  -0.1296722  -0.0711142  -1.0705244   0.7340414   0.0529575
  -0.5312172  -0.2109673   0.6414782   0.1499607   0.1079907   0.0838367
   0.2694365  -0.7610490   0.5285632  -0.4251846   0.6076850   0.2413100
   0.0496102  -0.3855032   0.1735063   0.3025565  -0.6197218  -0.1335875
  -0.0522902  -0.4096229  -0.1109112   0.0640562   0.1945382  -0.4684896
  -0.9659536   0.6899200  -0.1703472   0.7666677   0.7251582  -0.4312619
   0.1177436  -0.3680702   0.1796110   0.2396291   0.2218592  -0.0964317
  -0.6173450  -0.7240034   0.1604941  -0.4183218   0.4834187   0.1035271
  -0.3907866   0.2136469  -0.1387397  -0.2630900   0.5935143  -0.3281326
  -0.0935199  -0.1212413   0.4563788  -1.1674500  -0.0514695  -0.3873971
   0.7447814  -1.2978486  -0.1142987   0.1900640  -0.0829773   0.1673734
   0.6894606   0.5287684   0.1979255  -0.2814586  -0.0291172  -0.1375283
  -0.2187967   0.0261395  -0.2323079  -0.4942774  -0.1438317  -0.4418676
  -0.6046966  -0.3764124  -0.5159403  -0.3066973   0.1866765   0.1509139
  -0.5102983  -0.3305332  -0.8636487   0.0880942   0.2640512   0.0005543
  -0.2384115   0.1698148   0.3127628  -0.5967963   0.6545747   0.4966331
   0.0351551  -0.0546937   0.8392975   0.1190735  -0.1519862  -0.1316946
  -0.5816054  -0.7344285   0.2692089   0.7609309  -0.0482537   0.1514126
   0.1554771  -0.3098735  -0.2128555  -0.5522232  -0.6692166  -1.2560452
   1.1108719   0.4459031  -0.6765477   0.0968719  -0.0720601   0.3625634
  -0.2536786   0.5941476   1.1847258   1.0071714  -0.3521851  -0.1339235
  -0.3169166   0.0810842  -0.1875246  -0.0954716   0.1033749   0.3381515
  -0.1848848   0.2204608  -0.5041327   0.0167835   0.0728259  -0.0281146
   0.8007824   0.0693716   0.2302110   1.1617620  -1.2434792  -0.4338075
   0.0220005   0.0701555  -0.0957213  -1.0627126  -0.4156912   0.4595012
   0.7001601   0.1756408  -1.3128009   0.1132833  -0.0963181   0.1312880
   0.1220347   0.0336658  -0.2889977   0.4138739   0.1780015   0.3431015
   0.0283812   0.0122406   0.1026446   0.0223452  -0.9207605   0.1810388
  -0.2635795   0.0597369  -0.0009427  -0.0964471   0.2375688  -0.3453059
   0.1140024  -0.1110950   0.2750005  -0.1486880   0.4038824  -0.4919429
   0.1736913   0.2005501  -0.1117585   0.1243184   0.7870077   0.4941042
  -0.5496174   0.3302974  -0.5550254   0.0089173   0.2197517  -0.1089570
   0.6555602   0.2692531   0.5967601   0.0035686   0.2462114  -0.8304668
  -0.0589388  -0.1280132   0.0901741   0.5866860   1.3439899   0.8488094
  -0.1547209  -0.3397299  -0.0163193   0.0815897   0.1699883   0.0374347
  -0.2450509  -0.3322675   0.1968373  -0.5476065  -0.1224285   0.3729582
   0.0623770  -0.0540016   0.3553915   0.0403837   0.1984322  -0.0297133
  -0.5455150   0.0268601  -0.8002550  -0.2372209   0.2798018   0.0790857
   0.6249406  -0.2759619  -0.1639534  -0.1311974  -0.1332881   0.1838712
   0.0154750   0.1961879   0.1425791  -0.7046370  -0.2678147  -0.2386997
  -0.1262086  -0.6742621   0.1250241  -0.0172718  -0.3979581  -0.0397633
   0.2949549  -0.3467719  -0.4453433  -0.4466536   0.1717805  -0.1075793
  -0.0257230   0.3119836   0.0579090  -0.0452747   0.3053998   0.0292762
  -0.9773725   1.4562149   1.8209403  -0.1024106   0.1046100  -0.1498663
  -0.5614380   0.2369190   0.9946881  -0.5633466  -0.5264955  -0.6266908
  -0.1180860  -0.0233870   0.0713142   0.0635129   0.2966416   0.5161911
  -0.1096883   0.6929483  -0.5323416  -0.0973618  -0.1245703   0.0747448
   0.7126535  -0.0526566  -0.6286505  -0.3946149  -0.6871966   0.5767193
   0.0964640  -0.3191666   0.2415874  -0.5805953  -0.9251165   1.0809959
  -0.3562414  -0.3503891  -0.7721547   0.0543126   0.0013409  -0.1112470
  -0.2280958   0.8917931  -0.5323262   0.0819036  -0.7443489  -0.0807439
   0.1163248  -0.2563218   0.2096079  -0.0463692  -0.7842853   0.1467730
   0.2763805   1.1991507   0.1515740   0.3393662  -0.0756388  -0.0386229
  -0.0365972   0.2860692  -0.4640628  -0.5274555   0.7243274  -1.2120231
  -0.2668103   0.0475839   0.3938976   1.0399834   0.7947220  -0.7696765
  -1.4950159   0.7651682   0.3353960   0.0453588  -0.3683323  -0.0919316
  -0.2235422   0.1018582   0.1761464  -1.0399101  -0.5101266  -1.0735398
   0.2114891   0.0773867   0.4464384   1.3202781   0.0445081   0.1243422
  -0.5169394  -0.7771475   0.4328921   0.2696630  -0.0480714  -0.3154923
   0.4098828  -0.7848471  -0.8144755   0.3728681   0.8497690   0.0810898
   0.1933997  -0.0205788  -0.0641762   0.7749467   0.2025438   0.0824172
  -0.6740145   0.4419868   0.4720509   0.1305921  -0.1983363  -0.1020273
   0.1398630  -0.0888289   0.0793485   0.4319815   0.1963623  -0.3055784
   0.1061720  -0.1782344   0.0440790   0.4646496   0.1059770  -0.4356065
   0.0355112  -0.2468708   0.4155591   0.0676451   0.0811874   0.0069093
   0.1131032   0.5272469  -0.2644890   0.0750508   0.3656023  -0.0283982
  -0.1644528   0.1695528  -0.0604913  -0.2415930  -1.0372340   0.1435423
   1.0820789   0.3261746   0.0678184  -0.2436357   0.0796107  -0.0067473
   0.2042753   0.2192329   0.3597226   0.6703064   0.4328609   0.9668296
   0.5200509  -0.1188874  -0.0300181   0.0901428   0.3136412  -0.5471896
  -0.3335584  -0.8351238  -0.6477159  -0.2555196   0.4310064   0.1076211
   0.1994638  -1.1082993   0.3517563   0.1129256  -0.2300424   0.3789454
  -0.0635205   0.1557100  -0.3309250   0.3330324  -0.1426171  -0.4332102
   0.4341752   0.6032351   0.0863467  -0.0399309   0.3108371  -0.1830626
   0.2022302   0.0703466  -0.4218559  -0.4031683   0.4572715   0.6715022
  -0.0618166   0.0809119   0.2691063   0.2490902   0.2029271   0.1770417
  -0.0836176   0.0735554   0.6213263  -0.0016327   0.0028109  -0.1085987
   0.3819924  -0.6564461   0.4668536   0.5500326  -0.3479101  -0.6319124
   0.2698361  -0.0157115   0.1162017   0.4789937   0.3207237  -0.2411695
  -0.1788927  -0.5217715  -0.7865592  -0.3884297  -0.0519037   0.3410466
   0.7977851  -1.2111437   0.5110525   0.7701644  -3.0026482   1.2903956
   0.0217732  -0.4478215   0.4117404   0.7805930  -0.5385885   0.5212918
   0.2880459   0.2728053   0.3476422  -0.2795666  -0.2446562  -0.1004146
  -0.2289371  -0.3283126  -0.5574025  -0.0758081  -0.6140544   0.1145155
  -0.2020358   0.0906228   0.1383152   0.4986340  -0.3798891  -0.0012614
  -1.3849679   0.5195485   0.2294731   0.1173560  -0.2168693  -0.1784765
  -0.0199844  -0.8448957   0.2986069  -0.0317525   1.1150366  -0.9562086
  -0.3208349   0.4575432   0.0528749  -0.5596831   0.6442896  -0.1512815
   0.0364987  -0.1570838  -0.1234778  -0.0260605  -0.0133133   0.1122507
   0.4732214  -1.1110612   0.4022087   1.6658838   1.1584634  -0.2056821
  -0.0419040  -0.0791480   0.1031982   0.4442065  -0.0846636  -0.0031529
  -0.2777498  -0.1886762   0.1792299   0.0122834  -0.0545770  -0.1350342
   0.4375878   0.3086946   0.0210417   0.1227664  -0.4472418  -0.9835774
  -0.1287974   0.2260154   0.0932093   0.7145523  -0.0463295  -0.3985918
  -0.8682841  -0.2149289  -0.4247671  -0.2522842  -0.1820272  -0.5828809
   0.2081414   0.5839649  -0.7162447  -0.2527965   0.1787163  -0.5629437
  -0.1738802  -0.0192369  -0.1128658  -0.0537083   0.5233197   0.3130177
  -0.2103916  -0.0783152  -0.0151954   0.1292205  -0.0297982   0.0893065
   0.7290739   0.9458298  -0.1507485   0.3417492  -0.2391042  -0.3177279
   0.0884688  -0.0992048   0.0504134  -0.1967286  -0.1064129   0.0023484
  -0.3428524  -0.0853640   0.0035666   0.1982885   0.0338414  -0.0817169
  -0.2827843   0.2630989   0.1239640   0.6054706   0.1930401   0.1927455
   0.0188048   0.2069787  -0.2671313   0.9932784  -0.3364754  -0.6802485
   0.4383865  -0.4352985  -0.5586201  -0.0902978  -0.0758409   0.1645383
  -0.0087943   0.3118748  -0.8714826  -0.0991904  -0.0921049   0.1832699
   0.1076649  -0.2751232   0.0966555  -0.6994099  -0.2162968   0.2895410
   0.8882123  -0.4415420  -0.1131233  -0.3393534  -0.0437511  -0.2442825
  -0.1096311  -0.1279295  -0.6396479  -0.3459270   0.2596538   0.5290728
  -0.2868861  -0.1562580   0.4651581  -1.3755471  -0.3415561   0.3224368
   0.9860007  -0.1346455  -0.3556535  -0.0233153  -0.2055472   0.2737203
  -0.6299235   0.0282881   0.2238167   0.4479943   0.0733206  -0.0997923
   0.0965481   0.1062866   0.1350976  -0.8355903  -0.2020037   0.1841116
   0.3352838   0.3563800   0.9919867   0.0533330   0.1174870  -0.1431172
  -0.5504418  -1.8682555   0.2878660  -0.7506436  -1.2726775  -0.2502421
   0.1464658   0.0152595  -0.3859465  -0.0295532  -0.5508692   0.2385786
   0.1871401   0.7819660   0.0713536   0.0434975  -0.0772852   0.0890681
   0.0639614  -0.6079561   0.8726363  -0.0280159   1.2120217   0.1192503
   0.1148117  -0.1131901   0.1698791   0.1242980   0.1230194   0.2775249
  -0.0693438   0.2543424   0.0816036  -0.2677787  -0.0747289   0.1336031
  -1.1993533  -0.2663426   0.1844190   0.5398425   0.0755915   0.1110327
   0.0616307  -0.0878375   0.0883561   0.2182274   0.2094958  -0.8490715
  -0.1927574  -0.4499395   0.3046371  -0.0173503  -0.0945053  -0.3071783
  -0.2888539  -0.3087708   0.0726301  -0.2939611  -1.3128352   1.1445663
   0.1724169   0.2172076  -0.0380978   0.2482889   0.6445615   0.2053012
   0.9947355  -0.0486934   0.1295730  -0.1209306  -0.0165508  -0.1121347
  -0.1945468   0.8420939   0.8675472  -0.1606833  -0.8419413  -0.2807323
   0.1082130  -0.0691340  -0.0034356   0.6535012   0.1800486   0.0468511
   0.3281792  -0.1634401  -0.4681522  -0.0824772  -0.0888484   0.2206665
  -0.4666891  -0.6728067   0.1486646   0.2708593   0.7471001   0.5663263
  -0.1734856  -0.5267084  -0.0830954  -0.2405331   0.4495826  -0.4531447
   0.7457986   1.3604133  -1.1839360  -0.0358469   0.1784850  -0.3097012
  -0.9222476   0.5158448   0.5777218  -0.0798112  -1.1177984  -0.5962992
   0.1495120   0.3479419  -0.1317273   1.1294479  -0.9792996  -0.4547488
  -0.8763320  -0.1212336   1.1735710   0.1807870  -0.0518044  -0.2854939
   0.2586739  -0.0910529  -0.0108507   0.4032926   0.3979337  -1.2394916
   0.1709252  -0.1492582  -0.1186685   0.2569588  -0.9806323   0.3900645
  -0.1571088   0.1310283   0.4053595  -0.0625985   0.1922588  -0.2077881
  -0.7880174  -0.0718001   0.8682959  -0.0122547   0.2203657  -0.3734580
   0.1933529   0.1822899  -0.1589303   1.2818957  -0.3520755   0.2233591
  -0.7576424   1.0061981  -0.6825166   0.3030011  -0.2618506  -0.2209808
   0.0100062  -0.5498079   0.1473585   0.6696014   0.0852915  -0.7162758
   0.0951226  -0.0986314  -0.2843335   0.0920093  -0.5794523  -1.1108253
  -0.1524760  -0.7195968  -0.6091713  -0.1777121  -0.1650747   0.1249825
  -0.7449414  -0.4544381   0.0577907  -0.3343647   0.2315870  -0.0533999
  -0.2617489  -0.1506962  -0.0744819  -0.2997571   0.3457204   0.7145278
   0.5546399   0.1603865  -0.5269708   0.0420804   0.0047106  -0.2885156
   0.2706143  -0.3287214  -0.4088567   0.2958383  -0.6122242   0.1492929
   0.2187894   0.3005355  -0.0465095   0.0088566  -0.6184929  -0.2346727
   0.7683061   2.2096507  -0.5466887  -0.1077527   0.0021123   0.1364391
   0.2294150  -0.4811804  -0.2644936   0.3111899  -0.5997247  -0.3667541
   0.3221039  -0.1037706   0.3357446   0.5000278  -0.5412733  -0.5752369
  -0.7372535  -0.2205678   0.5410644  -0.0426012  -0.3029630  -0.1076820
  -0.0824899   0.2672479   0.7251376   0.9477448  -0.5049404   0.3833906
  -0.1090923  -0.1022882   0.3695102  -0.1321647  -0.7294163  -1.1977122
  -0.1180628  -0.5248158  -1.1776744   0.2530905  -0.1300775   0.0041355
  -0.1465136   1.3680941  -0.9343446   0.2021112  -0.4245997   0.6866498
   0.0975878   0.2683668   0.1243714   0.5331972   0.3973245   0.4690517
  -0.6372717  -0.7960966   0.5421217   0.1293199   0.0955989   0.1134484
  -0.3145778   0.0945238  -0.6284876  -0.2983818   0.3052522   0.5060191
  -0.1044315   0.0532449  -0.1087732   0.4570891   0.9169161   0.1717850
  -1.0010402  -0.2300833  -0.3320425   0.1039043   0.0489341  -0.0260727
   0.2530046  -0.0971301  -0.1809125  -0.0133495   0.1463879  -0.2727598
  -0.2608798  -0.0898960   0.0270245   0.2335648   0.3957610  -0.2416816
  -0.6303891   0.9218010   0.1027030  -0.0911373  -0.3135902   0.3515206
   0.3284082  -0.3977355   0.1160075  -1.0968290   1.1490666   0.4712185
  -0.1265011   0.1485756  -0.2496507  -0.3784079  -0.3260805  -0.4442113
   0.1973294   0.1161971  -0.0881651   0.1727497  -0.0164707   0.0321611
   0.5020216   0.4247791   0.1647772   0.4949638  -0.1930158  -0.1158835
   0.3519141  -0.0244484  -0.0931975  -0.3670472   0.1014643  -0.5289286
  -0.0426886  -0.3168461  -0.1105666  -0.1927671  -0.0471882  -0.1532341
  -0.3213797  -0.1564930  -0.0424787   0.5660888   0.6539611  -0.1218559
   0.2482265  -0.0612203  -0.1912171  -0.7865884  -0.5979101  -0.1249663
  -0.1734947  -0.6949428  -0.1764600  -0.1983096  -0.2489908  -0.1489532
  -0.8385918  -0.2828570  -0.3247583  -0.0430673  -0.3359130  -0.3024143
   0.3031153  -0.0443413  -0.1899502   0.5250937   1.2967180  -0.3895075
  -0.4971832  -0.3821743   0.2618458  -0.0255970  -0.1462758   0.0898242
   0.1644549  -0.4117782  -0.7394715  -0.8986760   0.6051826  -0.2098199
  -0.0523091   0.2324240   0.2053782   0.3233242  -0.6182420  -0.1790863
  -0.7475678  -0.7498544   0.2497454   0.1918717  -0.0543190   0.0816898
  -0.2764264   0.8971093   0.1551659   0.8808113  -1.4488504  -0.0026539
  -0.2229781   0.1363671   0.1023306   0.0848955  -0.0866911   0.4704399
   0.3255596  -0.1783922   0.6090496  -0.0755919  -0.2093933  -0.1541591
  -0.0821244  -0.1162882  -0.0461674   0.0012464   0.1443997   0.3182294
  -0.0988623   0.2089717   0.0794663  -0.6640815  -0.0345605  -0.9741564
   0.9405191  -0.4739245  -0.0260466  -0.1144677  -0.0233199   0.1709302
   0.2183240  -1.1598542   0.4586023  -0.6703537   0.6945590   0.0635048
   0.0091690   0.0645954  -0.1504338   0.0855850   0.8276697   0.2800970
   0.0544638   1.3385119   0.5814522   0.0682639   0.0876498  -0.1345992
   0.3894391   0.6258210  -0.1779366   0.6830277   1.3698869  -0.1666106
   0.1726693   0.0969412   0.0139230   1.1150105   0.6311031   0.2577686
  -0.2162921  -0.5194370   0.6830263  -0.1498340  -0.1770152   0.1275409
  -0.9178370  -0.7583602   0.0020094   1.6399010   0.1073987  -0.0873781
   0.0784659  -0.1241814   0.1767928   0.8045283   0.4146559   0.2478616
   0.4785365   0.3948743   0.4158389   0.2733942   0.2253588   0.1222490
  -0.1249563  -0.8910886   0.0385814   0.3385233  -0.0073378   0.1167197
   0.3668290   0.0102787  -0.2317941   0.0070408  -0.3280102   1.2783675
   0.7288837   0.0104583  -0.3835795   0.2421281  -0.0520439  -0.0351028
  -0.7427510  -0.1385667   0.0368267  -0.0842226   0.3012208  -0.4105469
  -0.1636982  -0.3530708  -0.0706362   1.4641174  -0.3595091  -0.9315644
   0.1159073   0.6944693   1.4314315  -0.0659541   0.0624834   0.1054010
  -0.4181046   0.2444627   0.1095553   0.0601041   0.0137013   0.3446108
  -0.0418784  -0.0111426   0.0383840  -0.2770101   0.1259418   0.0737002
  -1.1359810   0.1768304  -1.6580021  -0.0122255  -0.1285584  -0.0759061
  -0.3392620  -0.0756337  -0.0563539   0.3956886  -1.1723970  -0.7427244
   0.1404492  -0.0064488  -0.0898735   0.3330902   1.0938361   0.1331111
  -0.4494770   0.3241085  -0.7413349  -0.1073813   0.0180324  -0.0333512
   0.1316178   0.2329202  -0.1358853  -0.3209077  -0.2211867   0.2215537
  -0.2999716  -0.2669572  -0.1671330  -0.0146556  -0.5541544   0.6435902
  -1.3058892  -0.0783676  -0.5068552  -0.0238072   0.1440786   0.1625401
   0.5152272   0.4235759   0.0936708   1.0055642   0.1029830   0.7241643
   0.1234642  -0.1381602  -0.0082836   0.0770881  -0.0663099   0.4308479
   1.1810120  -0.1433240  -0.1849719   0.4419669  -0.3002401   0.2849736
   0.3002687  -0.3689592   0.1752968   0.3082913  -0.3680012   0.5333005
   0.0819333   0.1544968   0.0176192   0.0911514  -0.1138889   0.0114111
  -0.0816614   0.0292656   0.2199449  -0.1153591  -0.3371238  -0.2801837
  -0.1212507  -0.0696064  -0.3152249   0.1690211  -0.0513141  -0.4174004
  -0.0329571   0.2117101   0.2944514  -0.5429444   0.1274855  -0.0697551
  -0.1577936   0.1148801   0.2163323  -0.2423960   0.0916433   0.2110902
   0.4066409   0.6640788  -0.4023039   1.4304919   0.2230570   0.0598285
  -0.1738963  -0.0531261  -0.1726417  -0.0932507  -0.7719469  -0.8028609
  -0.0777830  -0.0539183  -0.1863841   0.0841618   0.1619375  -0.2744986
  -0.8916786   0.3657221  -1.3083916   0.8240352   0.0087926   0.5020902
  -0.2471118   0.1100373   0.2978803  -0.5375905   0.4906710  -1.0532756
   0.4624066   1.5197892   0.6637722   0.2356185   0.0077678   0.0433054
   0.8374149  -0.2657371   0.0825754  -0.4705455   0.5021064  -0.1813149
  -0.0954655   0.1858492   0.0050025  -1.0114418   0.4220716   0.8566011
  -0.6981286   0.3413328   0.5632655  -0.0392878  -0.0961294   0.1620432
  -0.9266580  -0.7041732   0.3373607  -0.4717917  -0.8088469   0.1461796
  -0.0248225   0.1717094  -0.1449947  -0.1866825   0.1905275  -0.3344465
   0.1593274   1.0551033  -0.1780560  -0.1650601  -0.0203530  -0.0640039
   0.8217543  -0.0287148   0.4905140   0.5285719   0.3637412  -0.0719255
  -0.4510193   0.1823297   0.2098659  -0.1044433  -0.0294509   0.6345107
   0.5576148   0.4965556  -0.2598878  -0.6034234   0.2996248  -0.5066044
  -0.7254565   0.3609197  -0.5051028  -0.2830849   0.6829498   0.3803778
  -0.3120543   0.2459421   0.1532777  -1.0267545   0.3389219  -0.0558216
   0.5687359   0.1491603   1.5401091   0.1284853   0.0406646   0.0941973
   0.5056603   0.5697013  -0.1742005   0.0248492   0.0217091  -0.4137138
  -0.1239748   0.0497356  -0.1393492  -0.0996564  -0.4056981   0.0749567
   0.0826922   0.3459249   0.2268182   0.1004921  -0.3344956   0.0548627
   0.7384413  -0.1221707   1.0248743  -0.0665311   0.5908091  -0.4093539
   0.1176979   0.1509860   0.1580569   0.0426711  -0.4517502   0.9665158
   0.4957069  -0.8313145   1.2120351  -0.0730862  -0.4685183  -0.0677833
   0.6795823  -0.1867052   1.5118639  -0.1511260  -0.4568365  -0.1436706
   0.1014688  -0.2473163   0.0669911  -0.2716087  -0.4031225   0.0312481
  -0.2821465  -0.6106117  -0.3050706   0.2162123  -0.0770694   0.3874297
   0.2123131  -0.1098319  -0.1367820   0.0649030  -0.7495743   0.5107957
   0.3476093   0.2194524   0.0953643  -0.3265961   0.7325243   0.1872567
  -0.4199300   0.3039169   0.5099939   0.1812535  -0.0083426   0.2133826
  -0.0537287   0.2011532  -0.0953673  -0.5777565  -0.1089308   0.8015894
  -0.1681730   0.2661664  -0.0282055   0.0511571   0.1613574   0.4823054
  -0.0512189   0.3776051  -0.4109630   0.1014380   0.1916288  -0.2184683
  -0.4506230  -0.0077661  -1.1644996   0.1899998   0.4451302  -0.4431596
   0.3980673  -0.1082202   0.2599415  -1.0010339  -0.0007818   0.2205518
   0.6224835  -1.5141564   0.2008156  -0.1260837   0.2324177  -0.1593899
  -0.0032098   0.6471629  -0.0371263   0.1124235   0.9624771  -0.0232927
  -0.0899513   0.1207270  -0.2025858  -1.7928117   0.2361290  -0.2013339
   0.4372435   0.8447760   0.9409940   0.0748748  -0.0417579   0.3860264
   0.0058493  -0.8365851   0.1605710   0.2524413   1.1205711   0.7013811
   0.1270673   0.3097966   0.1809475  -0.7031521   0.3088335   0.3450638
   0.3394349   0.6914315  -0.0581472  -0.2672987   0.0345815   0.3727244
   0.5365094   0.0991690  -0.2768867  -0.0100810   0.1742408   0.1910989
  -0.1704972   0.0781432  -0.1312573   0.6727251   0.5445160  -0.5499254
   0.1643034   0.0289431  -0.6831050  -0.1485240   0.2442747   0.0934130
   0.4176956  -0.1392933   0.0399162  -0.6598202   0.1349270   0.8847708
  -0.2111254   0.1746064   0.0217520   0.6366091   0.4209046   1.4511061
   0.0850188   0.3229214   0.7877675  -0.1368663  -0.1806958   0.1699151
  -0.0770993  -0.4263973   0.1741423   0.1303007  -0.0822490   0.1722156
   0.0145450  -0.2289521   0.0172222   0.9060729  -0.7482150  -0.1632351
  -0.5697915  -0.4870825  -0.8117037  -0.0790440  -0.1883813  -0.1971545
   0.4827911  -0.0755136  -0.1762004   0.3937345  -0.0992608  -0.1300368
   0.0497350  -0.0519140  -0.0006183   0.2788352   0.2710156   0.1385302
  -0.0013348  -0.3157217   0.0848431   0.1398563   0.2235895  -0.3914129
  -0.0974699   0.4039058  -0.5784183   0.0785206   0.2335208  -0.3997574
   0.1486570  -0.0784736   0.0573682  -0.4818008   0.0084797   0.9164964
   0.7081744   0.7581872  -0.7479962   0.1511247   0.2243700  -0.4547768
   1.5306677   1.0645686  -1.3572031   0.4031042   1.3273951  -0.1169990
   0.0236455  -0.1806350   0.1376582   0.0547388   0.2580326  -0.2889316
  -0.0594075  -0.8947966   0.7306419  -0.0923926   0.0597951   0.1697495
  -0.0317561   0.0000435  -0.2395202   1.3509539   0.0101009   0.8763840
   0.1017457  -0.1890112   0.0322835  -0.6036280   0.1553230   0.2647856
   1.1962657  -0.6665235  -0.3861290  -0.0784334   0.4878230   0.0816575
  -0.3479595  -0.0435297   0.8552162  -0.1838527   0.7995727   0.0534943
  -0.2853289  -0.1411297  -0.0125092  -0.4584006  -0.5734328  -0.1442480
  -0.8981508  -0.9584007   0.4612035  -0.0586216  -0.1564708  -0.1577952
  -1.0224907   0.8461484   0.1754273  -1.1689141   0.1612161  -0.5340333
  -0.0300234  -0.0904317   0.3620123   0.6407461   0.0969992   0.0686134
   0.3948514  -0.8340221  -0.0805940  -0.2725126   0.2316359   0.0538882
   0.1222402   0.2030065   0.1294981  -0.0381014   0.0235587  -0.3372583
   0.4663340   0.1332938   0.1341224   1.2440246   0.4137812  -0.1573312
   0.1006809   0.9305224  -0.4677250  -0.0795630  -0.0338710  -0.0770481
  -0.6132940  -0.0181794  -1.1655099   0.5413254  -0.5207369   0.1733076
  -0.0392779   0.2561461  -0.0836128  -0.4785533  -0.5772358   0.4623322
   0.2835547   0.1353907  -0.5732817  -0.1484047   0.0162005   0.1837848
  -0.2127788   0.8788423   0.0493682  -0.2572263   0.0987068   0.0798376
   0.0919638   0.1465961  -0.3164284   0.9974791   0.2928332   0.5413936
   0.3069031   0.1545766  -0.0671654   0.3581010   0.0990722  -0.0114574
   0.7661500  -0.0683142  -0.3449466   0.0916318   0.2836274   0.2988820
   0.1307687  -0.0500995  -0.1273070   0.5149246   0.3019194  -0.2251396
   0.2451707  -0.4276305  -0.2719992  -0.1611009  -0.1850988  -0.0759377
   0.3216909   0.3469920  -0.0747868  -0.3786270  -0.4083364  -0.2959837
  -0.0669732  -0.2325458  -0.0291391  -0.6851938  -0.0710065   0.2063159
   0.0748048   0.2317740  -0.4968715  -0.0313691  -0.3097166  -0.2345297
   0.6546001  -0.4283223  -0.0380459   0.5444198   0.6261109   0.1485324
   0.2306868  -0.0606535   0.0492366   0.6234064   0.4460052  -0.4714736
  -0.5631345  -0.5410162  -1.3070180   0.0379618   0.1799759  -0.0319209
   0.1848371   0.8949516  -0.4416798   0.2821539  -1.2243487  -0.7046523
  -0.0825955  -0.3194336  -0.0805573  -0.7437997  -1.1065426  -0.6107667
   1.0548996  -0.3177673  -0.4987449  -0.2560572   0.5120468   0.2457791
   0.9654259   0.8871863  -1.1246781  -1.2844200   1.3828202   0.2970814
  -0.1092671  -0.3192757  -0.2678189  -0.8543410  -1.1933553   1.3825828
  -0.3784392  -0.2849193  -0.4835982  -0.2870809  -0.0009705   0.1345271
   0.6729362  -0.4996750  -1.2838564   0.5961105  -0.3262378   0.5915947
   0.2621494  -0.0903682   0.0872086  -0.0237874  -1.1157612  -0.0479050
   0.8995738  -0.2809273   0.3095806   0.0142479   0.2358951   0.0427366
   0.2369177   0.4872001   1.1446144  -1.0910363   0.5291078  -0.1063964
   0.1905040   0.3416152  -0.0435970   0.2079374  -0.3506758   0.2956103
   0.7691024   0.6171637   0.3570257   0.0038233   0.0405027  -0.1824201
   0.0255167  -0.1287491  -0.2409610   1.1332283   1.4432578   0.4720124
   0.0852863   0.1265441  -0.3119155   1.1600109  -0.6505594  -0.2395567
   0.0935208   0.3482231   0.1360111   0.0242300   0.2502680   0.0646895
  -0.1542281   0.2333776   0.5350148   0.1197792   0.7192571   0.2270196
  -0.0861614  -0.2426167  -0.0368964   0.7835449  -0.9936330  -1.0278701
   1.1441391  -1.2839241  -1.3911212   0.1950033   0.2262591   0.0428710
   0.2941278   0.0983522   0.1321111   0.2146745  -0.4245479  -0.2557739
   0.0242210   0.1872520   0.1124212   0.1000382   0.9688327  -0.3621373
  -0.1472695  -0.1342923  -0.3697733  -0.2504220  -0.2407671  -0.0952544
  -0.9039950   0.1331545  -0.9205649   0.6992489  -0.2859219  -0.6052666
  -0.0337807   0.1911114  -0.0283645   0.3239231   1.1195530   1.1379114
  -1.4860997   0.4742658  -0.3130858   0.1736017   0.1060493  -0.1837769
   0.2267471   0.4828280   0.2117226   0.4188364   0.8961189   0.3122711
  -0.1108429   0.0289702   0.0139972   0.4001805   0.1288577  -0.0816668
  -0.0775112  -0.7136886  -0.4908284  -0.1323825  -0.0319040  -0.0278285
   1.8753975   0.2432445   0.3844928   0.6005229   0.3564913  -0.2141514
   0.0514891  -0.0834208   0.0589686   0.8813394  -0.6472641   0.6429609
   0.6342789  -0.8379725   0.5689860  -0.2407078   0.0641933  -0.0237368
   1.0932855   1.3121127  -0.2804660  -0.2412768  -0.0196760   0.2136734
  -0.1077320  -0.0972202  -0.1549516  -0.3008823  -0.1705866  -0.1625365
   0.2268679   0.0081420  -0.3658047  -0.0565903  -0.2553529  -0.0604528
  -0.7328141  -0.8331333   0.5317431   0.1069134   0.4983613  -0.5267462
  -0.2511842   0.1803374   0.1045567  -0.2728790   0.0517461   0.7901106
  -0.9873657   0.3386983  -0.0610440  -0.2093138   0.0660534  -0.0521138
  -0.4068896   0.1745338   0.1386672   0.0774108   0.3673934  -0.8436502
  -0.3348256   0.0392105  -0.2554603   0.2893668  -0.0395280   0.2438894
  -0.0440807   0.2521165  -0.5755141   0.1036680   0.2039350   0.1258374
   0.7946712  -0.6187604  -0.2113266  -0.7346057   1.1708698   0.5246227
  -0.1464782   0.1762722  -0.0277911   0.2112531   0.9545439   0.1785864
  -0.4347012   1.5986325   0.2072835  -0.0158893   0.1903630   0.2428006
   0.0630939  -0.7817637   0.6844787  -0.8966640  -0.2234304  -0.5683997
  -0.3138116  -0.0853736  -0.1560707  -0.4002376   0.0464849  -0.8956903
   0.0750914  -0.2177594   0.5838977  -0.1098346   0.2302675   0.1737614
  -0.6812020   0.1667391  -0.9373057   0.0151082   0.1874338   0.4175729
  -0.0458537   0.1838477   0.0072705   0.7406359  -0.5093363   0.0105905
  -1.7166330  -0.5620436   0.4961221  -0.0222089   0.1265513  -0.1788159
   0.0700595   0.0853370  -0.1429352   1.3989985  -0.5098175   0.3594669
   0.0505192  -0.0658308  -0.1925439   0.5177413  -0.6447358  -0.3055504
  -0.1636979   1.3067174   0.1154045   0.1869284  -0.1438382  -0.1531250
   0.2974126  -0.1140393   0.9516595   0.0655198   0.4324661   0.1764652
   0.2109786  -0.1518482  -0.0439553   0.2553643   0.9068079  -0.1065827
   0.6336186  -0.3710332   0.2444868   0.0807315   0.0037952  -0.0738617
   0.0887083  -0.1688276  -0.9250834  -0.6080627  -0.5188717   0.3214876
   0.3010197   0.2176982   0.0060404   0.1307139   0.2929349   0.9735454
   0.6120851   0.3740716   0.1644455  -0.0346122  -0.1384393  -0.1569825
  -0.1733618   0.0492419  -0.6953093  -0.3498331  -0.5680892  -1.9472556
  -0.0561597   0.0146865   0.1527572   0.2260315   0.2048829  -0.0706469
   0.0063866   0.1854106   0.5408183  -0.1654976  -0.0505428  -0.1397109
  -0.6121310   0.3949051  -0.1619039  -0.1560569  -0.5375532  -0.1607827
   0.1905923   0.2032843  -0.0852036  -0.9117641   0.7580312   0.0357872
  -0.0517363   0.1308280   0.2594718  -0.1071865  -0.0765941  -0.2263406
  -0.1138598  -0.4928141  -0.4210501  -0.3935967   0.4377720  -0.0575825
   0.5274491   0.1956280   0.0146784  -0.7098836  -0.8460349   0.1656580
  -0.3099237  -0.4225922  -0.2915062   0.0192840  -0.1549365  -0.0489568
   0.8657861  -2.2293450  -0.7494936   0.8402087   0.8725259  -1.3696189
   0.1591077   0.2028808  -0.1663926   0.1648415   0.1581871   0.2508695
   0.4820492   0.1723726  -0.5683042   0.0627912   0.0909518  -0.1263569
  -0.1445354  -1.3956107  -0.2307715   0.1394092   0.5480546   0.0479853
   0.3484035   0.0271922   0.1451446   0.5428547  -0.5250937  -0.3110918
   0.8933979  -0.5054871  -0.0277733   0.0361492  -0.0333830  -0.2714332
   0.4944653   0.2612344  -0.5692157  -0.2625495  -0.5414709  -0.4521789
  -0.0348169   0.1657163  -0.1923920  -0.7251378  -0.4358300  -0.4735946
   0.2289915   0.6233897  -0.9834303  -0.1141032   0.0910535   0.1649909
  -0.5525382  -0.4759385  -0.1815195   0.6030008   0.0776577  -0.1645942
  -0.1383246   0.2466241  -0.0291318   0.1129585  -0.0440849  -0.7676732
  -0.1950732   0.5130240   0.7388568   0.1158977   0.1745092   0.1280329
   0.7184879  -0.4232840   0.5002268  -1.0114438  -0.5900404   0.3113319
  -0.1205625   0.2168071   0.0614759  -0.2402628  -1.2334343   0.1808594
  -0.0625843   0.4086910   0.2785444  -0.3337558   0.1673026  -0.2934524
   0.2142516  -0.0695233  -0.6784744  -0.8683363   0.6914882  -0.1346099
   0.1621513   0.0759390  -0.0646869   0.4982107   1.0056850  -0.3601575
  -0.8861927  -0.5147988  -0.0404692   0.1797134   0.2809187   0.0640186
  -0.3085997   1.2980261   0.5423871   0.5889759   0.6975383  -0.5644239
   0.2546481   0.0505750  -0.1759742   0.1382765   0.3011511   0.0590179
   0.7570875  -0.1230269  -0.0715625  -0.0094754  -0.1273864   0.1137673
  -0.0302834  -0.1062333  -0.5116681   0.5163533  -0.3056091  -1.4514818
   0.2413978  -0.0700791  -0.4563309   0.9802447  -0.9609838  -0.0012511
  -0.1577704   0.6830846   0.1916597   0.5368189   0.0785667  -0.1403547
   0.3585475  -0.1501064  -0.0706973   0.8559748   0.4250654  -0.6755683
   0.1556409  -0.1669197  -0.0559309  -1.1741793   0.2622823   0.0172717
   0.1339546  -0.0485880  -0.7578858   0.0478194  -0.2461067   0.2664442
  -0.4907811  -0.8139947   0.4463261   0.3523821  -0.0295480   0.0892713
  -0.3021007   0.3207403   0.1196167  -1.2473490   0.8730799  -0.4417560
  -0.1339843  -0.4604413  -0.2695123   0.2564220  -0.1698901  -0.1057976
   0.1269425   0.0308258   0.0505722   0.2667233  -1.1753715  -0.0619521
  -0.1394148  -0.0532991   0.0400415  -0.1182533  -0.0474448  -0.1126884
  -0.7610990  -0.1078185   1.0031977   0.2532001   0.3626126   0.2377175
  -0.1509469   1.1846893   0.8333153  -0.6735828   1.1804135  -0.4251586
  -0.0866843   0.0969689   0.1238394  -0.1493907   0.4884506   1.0218869
   0.6497797   0.2345220  -0.8321471  -0.0768560   0.1184837  -0.2005691
   0.6929609   0.5569170  -0.5267111   0.4246782  -0.5415652  -0.3939723
   0.0281524  -0.0288840   0.2436738  -0.3731678  -0.4516270   0.1947821
  -0.1285377  -0.0238591   0.1816077   0.0122591  -0.0080648  -0.0864847
   0.2096643   0.4963150  -1.3550270   0.2226725  -0.7741385   0.8064011
   0.1073840   0.3059558  -0.0580481  -0.7942780  -0.1694037  -0.3365917
   0.2855085  -0.8495464  -1.1093156  -0.0655261   0.0163686   0.1465663
  -0.3757944   0.8104649  -0.1380082  -0.3178466  -0.0831890   0.1796505
  -0.0400021  -0.2431288  -0.1376815   0.7624460  -0.3170390  -0.6504316
  -1.1466616  -0.4574141   0.7278974  -0.0507881   0.4632777   0.0193673
   0.2109620  -0.7599384   0.7610574  -0.2146311   0.4219630  -0.9189632
   0.1007867   0.0275058  -0.1808928  -0.3159436   0.7010776  -1.0929295
  -0.5966627  -0.3949589  -0.8825925  -0.1907500   0.1954011   0.0087797
  -0.8394731   0.6930300   0.0999379   1.1617069   0.7728097  -1.1275855
  -0.2374846   0.1273332   0.1632107  -0.5950426   0.5113571   0.2206907
  -1.0936267   0.2235263   0.2299509  -0.1635014  -0.0497469  -0.0332436
  -1.0782428   0.6123626  -0.5006055  -1.4804397   1.0724277  -0.7486642
  -0.0325044  -0.0652865  -0.1297103  -0.1110061  -0.6468694  -0.2566420
   1.5585588  -1.4542901   0.2661243  -0.1258886  -0.0506601   0.0815883
   1.3150363   0.8786917   0.3870718  -0.2223920   0.9102135  -0.0878789
   0.4358201   0.0625883   0.0463020  -0.9894296   0.4484365  -0.4843554
  -0.2113041  -0.0353137  -0.0933507  -0.2205230  -0.1174138   0.0160293
   0.0117007   0.1182254   0.2728881  -0.5991481  -0.0411100  -0.3382640
  -0.0178969  -0.1040054   0.0103188  -0.0234428   0.2787302   0.2097175
   0.7816045   0.0174642  -0.5315079   0.0892494   0.1050843   0.0181312
   0.5023497   0.2115815   0.2193859   0.7083095  -1.0328734  -0.2785226
  -0.3153658   0.0502456  -0.2457242  -0.4945385   0.8098534   0.3178813
  -0.3171043  -0.3892077  -0.6314789  -0.1671994   0.1930796  -0.0681148
   0.3665340   0.3620960  -0.3292211   0.0316934  -0.3150898   0.0894452
  -0.1352194   0.0412971   0.0001981  -0.4508075  -0.2092199   0.0977602
  -0.2864589  -0.4156519  -0.1583158  -0.0910602  -0.1051651  -0.3264626
   0.7724873  -0.2199554  -0.0518021   0.5519422   1.0410435  -0.9436789
  -0.0131423  -0.2808953  -0.1345693  -0.1834146   0.1108333  -0.3543509
   0.6608316   0.3954163  -0.1233011  -0.3007224  -0.2238383  -0.1498675
   0.0811119  -0.1401731   0.0543720  -0.5047556   0.0752141   0.7686271
  -0.1188938   0.2323327  -0.0239142  -0.0782608   0.2286898   0.1131287
   0.1440108   0.1010020   1.1156587   0.2200243   0.0388296   0.2563194
   0.1851009   0.1020934   0.6438158   0.0279474  -0.3494761   0.0393975
  -0.4054433   0.0498890   0.2721162  -0.5949883  -0.1204560  -0.1422127
  -0.4803755  -0.2287045   0.2467678  -0.0326764  -0.1358943  -0.0528167
  -0.0363169   0.0838856  -0.4606427  -0.1524871   0.0094473  -0.6532516
   0.0021317  -0.1402866   0.1369998  -0.0060495  -0.5418237   0.5582702
  -0.0322888  -0.1745236  -0.7110146  -0.0229005   0.0762389  -0.0040692
   0.0744832   0.1118391  -0.0481557   0.3231779   0.5218568  -0.3639158
  -0.1667969  -0.1590930   0.0024766  -1.3274606  -0.1244447  -1.1275846
   0.9545995  -1.2076162  -0.6356688   0.2863895   0.0125367  -0.1973526
  -0.2981066  -0.6821001  -0.0040893   0.4444951   0.2281857  -0.2836385
  -0.0967885  -0.1088634   0.2696986  -0.3701278   0.0802269   0.6686934
   0.1332669  -0.5682203   0.1317908   0.0833397  -0.1485435  -0.1506016
   0.3041710  -0.1418961   0.0315584   0.5284826  -0.2858525   0.9158551
   0.0425588   0.0673629  -0.0347112   0.1179397   0.2403899  -0.8498123
   0.2267206   0.3781964  -0.1583071  -0.1712928  -0.2875327   0.1850760
   0.7070488   0.4207468   0.0600013  -0.7927089   0.5222091  -0.0220703
   0.0554065   0.3148346   0.1476241  -0.4529037   0.1270326  -0.3655978
  -0.8664960   0.2507862  -0.4763150   0.2782151  -0.0210980  -0.0037171
  -0.0718686  -0.4758210   0.6596123   0.2200447   0.1970665  -0.2953071
   0.2121232  -0.2180715   0.2589579  -0.0485353  -0.1576540   0.3656806
  -0.9584702  -0.8385095  -0.0208532   0.0756972  -0.1538019  -0.2164304
  -0.3261691  -0.4730056  -0.4517555   0.0097783   0.2465224  -0.5177345
   0.0084647  -0.0738640   0.1368245  -1.1702055  -1.1385947  -1.6840957
  -0.9307997   0.1967413  -1.1413661  -0.0147914   0.4127071   0.0151713
  -0.1026753   0.2968120   0.0902868  -0.1559523   0.3891580   0.0832788
   0.2369271  -0.1527444  -0.0228443   0.3524770  -0.8639949   0.0477421
   0.2811392   1.1466375  -0.8280132   0.1508387  -0.3752333  -0.0980062
   0.3161371  -0.7055919  -0.2028364  -0.0073615  -0.7491626  -0.5743895
  -0.1599467   0.0640752   0.0060116  -1.0167098   0.4592952  -0.0984210
  -0.1703367   0.1497325   0.0065932  -0.0704798  -0.0007920  -0.2972987
   0.0500502  -0.0057365  -0.4453781   0.2182216   0.8550076  -0.7577096
   0.1936274  -0.2112244  -0.0597919  -0.1629100   0.0952067  -0.4364724
  -0.0199340   0.2795302  -0.4369425  -0.0163473   0.0264311   0.2116333
  -0.4570876   0.0478577   0.0359257   0.4869622  -0.1053765  -0.4725427
   0.1237550  -0.0075389  -0.0005550  -0.0460529  -0.0363120  -0.6697881
  -0.8515243   0.1956124   0.5250593  -0.0343003  -0.1611615  -0.0969402
  -0.3197777  -0.2646788   0.6798374  -0.3339223  -0.3302978   0.0344395
  -0.1046339  -0.3310239  -0.0524186  -0.1654653  -0.9298545   0.0599522
   0.3715968  -0.4228766   0.4075591   0.1712405  -0.1168432   0.0990680
   1.1009680   0.2021391   0.4732322   0.1753430  -0.0111015   0.4483997
   0.1990369  -0.0348127   0.4954105  -0.5206041   0.5589393  -0.0984332
   0.2039291  -0.7776804   0.3148648  -0.0241515  -0.0770748  -0.1880198
  -0.1269807  -0.0226900  -0.2904263   0.0542841  -0.1063115  -0.4497081
   0.3999984   0.1966855   0.1671501   0.6541340  -0.0284250  -0.3755488
  -0.1374015  -1.6965404  -1.2230978   0.2278905   0.0251083  -0.1799608
   0.5170678  -0.1802386  -0.5342003  -0.0245457  -0.1224330  -0.4879795
   0.3019915  -0.1403945   0.0862184  -0.7758199   0.0274917   0.5692614
   0.5534216  -0.1330380  -0.7203958   0.1014190   0.0378242  -0.2686790
  -0.8121492   0.4100012  -0.1631999   0.0663705   0.1408099  -0.1431848
   0.3274281  -0.0154426   0.1851446  -0.4362564  -0.2408814   0.5838190
  -0.1707144  -0.2291196   0.1401266  -0.1683071   0.1516905   0.0885039
  -0.1071109  -0.1709715  -0.1424977   0.2087634   0.2966229  -0.2773939
   0.4590346  -0.0032556   0.1633331   0.2632031   0.8372656   1.5110232
   0.3763903  -0.2274837   0.0061669  -0.3570550  -0.1613855   0.3189410
  -0.1796346  -0.2224208   0.5425321  -0.5807103   0.4306528   0.8950176
  -0.2066501  -0.0463423   0.0558474  -0.6632244   0.3601422  -0.0579485
   0.4344158   0.2911653   0.0165888   0.0585942  -0.0076767   0.0195504
  -0.0129136  -0.2477308   0.2700019  -0.0167712   0.6146145   0.5365492
   0.1540787  -0.2434292  -0.0656948  -0.6032451  -0.9198374   0.4510272
  -0.4436434   0.9995471   1.3905097  -0.2019434  -0.1444826   0.0477120
   0.1927146   0.3064509  -0.9268477   0.4634615  -0.3127976   0.9570428
   0.1436880  -0.1787704   0.0592871  -0.0423933  -0.4265124  -0.1028402
   0.3207110   0.9111941   0.1257859   0.0342308   0.0288951   0.1361316
   0.5583079   0.5198688   0.6727079  -0.9577900   0.3894980  -0.8207874
  -0.0189637  -0.1846333   0.1608704   0.0971554   0.1105407  -0.9983666
   0.0807005  -0.9259528  -0.6003351   0.0352284   0.3543736  -0.2558312
   0.5546136  -0.4168822   0.0566637  -0.9052216   0.3270685  -0.4552550
  -0.0249721   0.1346717  -0.2773164   0.1518325   0.0867678  -0.3520938
  -0.5051229   0.1410842  -1.0861610   0.1029308  -0.1074193  -0.3142321
   0.3512477  -0.1221177  -0.2770713   0.0303410  -0.3546019  -0.2962797
   0.0357839   0.0031465  -0.1850723   0.7325743   0.0327282  -0.3205164
   0.4074624  -0.7865247  -0.9728262   0.0733170   0.1677641  -0.0053653
  -0.0760139   0.2510939  -0.1526104   0.1846684   0.3415503   0.3729119
   0.0795236   0.0235120  -0.3769671  -0.3232598   0.6478682   0.8579530
  -0.7490937   0.3925255  -1.1612526  -0.0029713  -0.0697071  -0.1556811
  -0.0045171   0.9924700   0.1648617   0.2510606   0.9658821  -0.0446517
  -0.0224597  -0.2188021  -0.0989280   0.0872497  -0.4229329  -0.2220917
  -0.2959241  -0.1161767  -0.4813452   0.0548302   0.0319747  -0.3659507
   1.1658486   0.4535491  -0.1200793   0.1317163   0.3481331  -0.8960496
  -0.0926110  -0.0168298  -0.0749735  -0.0878843  -0.2076220   0.0425063
  -0.0260810   0.1242148  -0.0172014   0.2420951   0.0683705  -0.0943681
   0.1625674   0.5518703  -0.3309485   0.0848387  -0.2340368   0.8824101
   0.1012026  -0.2326947   0.3005693  -0.2316203  -0.5169181  -0.7251240
  -0.2147887  -0.3906649   0.0768345  -0.2424706  -0.0600410  -0.1392631
   0.9000966  -0.3181553   0.3655139  -0.2014239  -0.0209391  -0.0706494
   0.1524669  -0.1764678  -0.4310325   0.0655471  -0.0794159  -0.6318225
   0.0143090   0.1780399  -0.8261464  -0.0922710   0.1250742   0.0958624
   1.2441416  -0.2861929  -0.2443691  -0.3176344   0.2054582  -0.8216563
  -0.1187423   0.0037894  -0.2909012   0.1902437   0.3848446   0.0696379
  -0.0931647  -0.5319775  -0.0042835  -0.1034324   0.3195868  -0.1217934
   0.3531732  -0.4462006  -0.9317865  -0.2453647  -0.4343221   1.0476799
   0.2054380  -0.0629369  -0.1150185  -0.9214038   0.9249454  -1.4351944
   0.5245785   0.0008491   0.9005687  -0.2423700  -0.1308763   0.0843384
  -0.5056477   0.9672429   0.8778790   0.7199155  -0.2274520   0.1623775
  -0.0742743   0.1384001   0.1333629  -0.0373524  -0.1986388   0.1094532
  -0.2384793   0.1021975   0.4078712  -0.0021108  -0.2719671  -0.2686823
  -1.0596195   0.9603176   0.6894034   0.2527686   0.2714355   0.3589284
  -0.1172297  -0.1218735  -0.0349505  -0.0037025  -0.1087196  -0.3201373
  -0.4355281  -0.3825608  -0.3239441  -0.2731259  -0.3710754  -0.1391754
  -0.1431394  -0.1404646  -0.3534237  -0.2317421  -0.2808810  -0.3302435
   0.1099220   0.0227516  -0.2619767  -0.0050045  -1.1544696  -1.5101147
   0.9131339  -0.2268745  -0.3501971   0.2172658  -0.0454790  -0.1151927
   0.2429561   0.1378154  -0.4123392   0.2388596   0.0599544  -0.2779433
  -0.0676599  -0.0948763  -0.1701917  -0.1628758  -0.6798849   0.4586507
  -0.9926880  -0.2146941   0.6816623  -0.2589887  -0.1572537  -0.1304608
  -0.3997126  -0.4039734  -0.4902683   0.1022801   0.9831088   0.8806275
  -0.0232934   0.0276664  -0.2806574   0.2891976  -0.3909622   0.1558307
   0.5678589  -0.0136420  -0.5843920   0.1923199  -0.0559988   0.1190294
   0.9837953  -0.0317801   0.0231042   0.5461028   0.2790075   0.1498530
  -0.0477877  -0.0112071   0.0947088   0.2987699   0.2475904   0.1308287
   0.2179001   0.3192236  -0.3719578  -0.0277433   0.1138661  -0.3690689
  -0.5814994  -0.2640753   0.2505614  -0.8257210   0.0557692  -0.6870849
   0.1661470  -0.4382258  -0.0212211   0.0724574  -0.3474839   0.2244119
   0.0474821  -0.4124164   0.2102690   0.1816181   0.0224355   0.2787170
   0.3726996   0.9065898  -0.4450365  -1.4086117   0.6570565  -0.7384375
   0.0042456  -0.0122888   0.0613885  -2.0838462  -0.5590303   0.4025512
  -0.0036133  -0.3001891   0.1736153   0.0404460   0.0955106   0.5462474
  -0.5965096   0.7500700   1.0306611   0.9564217   0.5598648   0.5820686
   0.0258455   0.0896631   0.2706237   0.1769575  -0.3851853  -0.0189002
   0.1370032   0.2674302  -0.0824718   0.1981278   0.1559322   0.2621616
  -0.3916810   0.2365069  -0.2310905  -0.0671383   1.1157375   0.4089426
  -0.3068952   0.3361867  -0.3670352   0.2677058   0.1430227  -0.2378685
   0.1211190  -0.6829830   0.2527415  -0.2609434  -0.2330732  -0.5899640
   0.1701636   0.8122373  -0.5160188  -0.2463167   0.4812844  -0.2782443
   0.0468279   0.1515634  -0.0003019   0.3827210  -0.1188053   0.4430002
   0.0716855   0.6309083   0.0913804  -0.1498773   0.0245625   0.1861628
  -0.7625061  -0.0434946  -0.3285223  -0.5831494   0.0393928  -0.0145138
   0.0822939  -0.0144887  -0.3650119  -0.0359528  -0.8956000  -0.1612810
   0.2439876   0.8481752   0.2980593  -0.0022401   0.4678139  -0.0525255
  -0.2456147   0.4122388  -0.5163949   0.1648465   0.1570297   0.3260812
   0.1922135   0.0491891  -0.0902813  -0.4903078   0.0056865   0.1433693
   0.2504527  -0.7008303  -0.5756947  -0.1121617   0.4652291   0.1671605
  -0.2513530  -0.0013101   0.4757710   0.6039202   0.4803010   0.7631608
  -0.0882923   0.3043026   0.0104956  -1.2496746   0.0627729  -1.3557833
  -0.6714922   1.0694106  -1.4039574   0.1074138   0.0913806   0.1166512
  -0.4790156   0.7081763   0.6196248   0.8367135  -0.4869038  -0.6014949
   0.1066840   0.0004545  -0.0776507  -0.2493311  -0.3728228   0.4691226
   0.1832678  -0.1161864  -0.7032933   0.2230232  -0.0032981  -0.0803169
  -0.1533402   0.4252032  -0.8198000  -0.3021412   0.0413677   0.6677108
   0.1695036   0.0235898   0.0479796   0.2947676   0.1591756  -2.0369500
  -0.1486040   0.0688540  -0.1658842  -0.2586698  -0.2527280   0.0188124
  -0.3905928   0.1310629   0.2894353  -0.2292290  -0.2938408  -0.2566574
  -0.0071429   0.2812726  -0.0597344  -0.0165343   0.2468900   0.3900590
  -0.0267601   0.4407496  -0.0944202  -0.1752112  -0.2703820   0.1284279
  -0.6269799   0.2242461   0.2723155  -0.2900425  -0.3827062  -0.7064718
   0.2130796   0.0794883  -0.0276194   0.3521834  -0.0207423   0.2340640
   0.2925042   0.0248577   0.0348390   0.1422027   0.0875400   0.3204018
   0.4580339   0.3535292   0.1192254  -0.3872119  -0.0141502   1.1155184
   0.0357398   0.1229516  -0.4443347   0.1215597   1.0126265  -0.4711146
   0.6004577   0.7789494  -0.1214227  -0.3115884   0.1761488   0.1394658
   0.6491924   0.2613145  -0.0077271   0.5002573  -0.2890476  -0.6581390
  -0.1767697   0.1126524   0.1607911  -0.2568700   0.1088506  -0.2138091
   0.1123734   0.2974838   1.6560535  -0.1497677   0.1387959  -0.1072098
   0.8596044   0.6468622   1.3128160   0.0025296  -0.8401542   0.2578801
   0.1304792   0.0630723  -0.0232027   0.0139823   0.1248875  -0.0589433
  -0.5687449   0.3004466  -0.8001339  -0.0230233   0.2034309  -0.0373630
   0.6578955   0.3824119   0.9861124  -0.2657756   0.1129300  -0.1600433
   0.3521043  -0.2410966   0.3064178  -0.0750130  -0.2617983   0.5016445
   0.1537777  -0.2364930   0.3915398   0.0839094   0.1318591   0.2018783
   0.6713066  -0.2691209   0.7883292  -0.2933656   0.3279625  -0.2353854
   0.2662959  -0.2138079  -0.1443187  -0.4429004   0.3314365   0.0236068
   1.4374602   0.5703317  -0.2551424   0.1165540   0.0923802   0.1338106
  -0.5031122   0.3342890   0.0308064   0.5642000   1.1958309  -0.0389375
   0.1303136   0.2036082   0.1337347  -0.4084361  -0.1657533  -0.2329111
   0.8830574   0.4328164  -0.1591351   0.1575878  -0.0552117  -0.0858286
   0.4450975   0.3490795  -0.3825833   0.1575286  -0.0346665  -0.2090829
  -0.2539789   0.1828929   0.1255285  -0.6954340   0.1809180   0.6369398
  -0.6744695  -0.5256681   0.1790288   0.1028978  -0.2164004   0.1639942
   0.9855669  -0.6086406  -0.3626690  -0.1507996  -0.1812073   0.3114420
  -0.0914205   0.0275001   0.0315199  -0.3002995  -0.3002021  -0.2681258
   0.0866798   0.6939382  -0.5547021   0.0680764  -0.0321367  -0.0475097
  -0.0535931  -0.4472755  -0.0514339   0.1502169   0.1058253  -0.0939208
  -0.0148513   0.1058783   0.2839310   0.3123253   1.4402331   0.8778631
  -0.4042237   0.2444768  -0.4489902  -0.1868219   0.2267703  -0.0981713
  -0.2375696   0.0595597   0.0458852  -0.0431057   0.1243202  -0.1161267
   0.0725383  -0.0160838   0.0852303  -0.2067472  -0.0814318  -0.1397377
  -0.6937202  -0.6430927  -0.4466478  -0.2332766   0.2753962   0.0476902
  -0.6054085   0.3998037  -0.4361102  -0.3854624   0.3534732  -0.6943613
  -0.5782769  -0.0825340   0.3711004  -0.2192376   0.1286954   0.1626431
   0.3525117   0.1673672  -0.2887749  -0.0715172  -0.2487227  -0.1203837
   0.4358010   0.0018569  -0.2436401   0.2534169  -0.1576604   0.0296663
   0.2625801  -0.2180853  -0.1062688  -0.8298302  -0.5068058   0.9011824
  -0.2946190   1.0520725  -0.9799578  -0.0621935   0.2027658   0.1261625
  -0.0736383   0.3581386   0.0110953   0.0101706   0.1742753   0.0728551
   0.0737441  -0.0114221  -0.3247223   0.0447433  -0.4334326   0.1534901
   0.2726521   0.2126271  -1.3123447   0.1360458  -0.0633736  -0.0027094
   0.1752142   0.2397003  -0.1872554  -0.0108054   0.2023123   0.2312067
  -0.1393845  -0.3030367   0.1445568   0.3808563  -0.2594777   0.5302727
   0.0873173   0.2845418  -0.1988640   0.2549168  -0.1727552   0.0130644
  -0.3134563   0.3683802   0.3712833  -0.0028007  -0.2590062  -0.2416646
   0.0372004  -0.0826125  -0.2397213   1.0189226  -0.4028815  -0.2087881
  -1.3865603   0.0889405  -0.7764339  -0.0837961  -0.0912278  -0.1554670
   0.0126903  -0.2231907  -0.4570803  -0.3027808   0.8528974  -0.0610701
   0.1564266   0.3273838   0.3312848   0.1357696   0.8478379   0.5265091
  -0.2539962  -0.0102952  -0.0435865   0.2038979  -0.1714924  -0.0439436
   1.2673988  -0.6271812  -0.5011658   0.5702603   0.0916395  -0.5493383
  -0.2644426   0.1348959  -0.0223607  -0.2501001   0.6559593   0.1646618
  -0.4154370   0.2645062   0.5593806   0.0474943  -0.1581032   0.1300301
   0.3134950   0.3794558   0.1779155   0.6181243  -0.4916445   0.3381760
  -0.2838436  -0.2072607   0.2289806  -0.3591021  -0.3590364   0.5418887
  -0.6632398   0.1469911   0.2687254   0.1331923  -0.1064477   0.0320718
   0.3089185  -0.1497238   0.7391672   0.4005934   0.5859570  -0.2964957
  -0.0361582  -0.1190209   0.0219946   0.0216746  -0.9550155   0.0314890
   0.9045274   0.1832523   0.1579642  -0.1270104   0.0867268   0.0751987
   0.1921829  -0.8610541   0.0620677   0.5094146  -0.2886959  -0.0711141
   0.0477860   0.1742253  -0.1816895   0.1284322  -1.1133594   0.4512016
   0.1068459  -0.3766203  -1.6494483  -0.0255204   0.0685902  -0.2749361
   0.0809416   0.0434430  -0.0812718   0.1135044   0.1224948  -0.4099041
  -0.3020681  -0.2624045   0.0465064  -0.3536883   1.4115649   0.0098549
   0.9293566  -0.7050413   1.4902809   0.1699312  -0.0820329  -0.0803723
  -0.6586319  -0.0731268  -0.0380998   0.2346717  -0.1930791   0.2986291
   0.1621756  -0.2696745   0.0865831   0.6366311  -0.4296086   0.4787925
  -0.5282666   0.3939205   0.6519889   0.0859245  -0.1531296  -0.1931256
   0.0046227   0.0390070   0.4187045  -0.0230349   0.1313269   0.6506464
  -0.1482139  -0.0056181  -0.0179876   1.1848066  -0.0158174   0.2789623
   0.5480536  -0.4677866  -0.7259093  -0.0686301   0.1721417   0.0544557
  -0.3396687  -0.4741718  -0.3109899  -0.4387842  -0.0527017  -0.0981593
  -0.2598981   0.0679022   0.2968077  -0.2309750  -0.2547824   0.4885106
  -0.2951764   0.4358484   0.0816006  -0.1109109  -0.0757714  -0.1517122
  -0.2595003  -0.7040044  -0.4626373  -0.2612145   0.2212080  -0.5146456
  -0.0924889  -0.1547737   0.0816851  -0.5566815   0.3691136   0.0179251
   0.4539343   0.1471885   0.1629636  -0.0305454  -0.1727506  -0.3582178
   1.1899888   0.3286864   0.0258105  -0.5236280   0.8414220  -1.5267860
   0.1693840  -0.0267943   0.0675842  -0.2300870  -1.0309672   0.1885966
   1.2138632  -0.4028431  -0.4065462   0.0402241  -0.1771394  -0.1329798
  -0.2924365  -0.3327469  -0.0978245   0.0618483  -0.1171044  -0.5184612
  -0.1318810   0.0924793  -0.2445689   0.2204779   0.8611859   0.1403999
  -0.1324077   0.5939310  -0.3981222  -0.1278998  -0.0526461   0.0857298
  -0.2681440   0.8018415  -0.3718685  -0.7175486  -0.6892933  -0.3522264
   0.0158873   0.2169204   0.2490719  -0.6901888  -0.5406262   0.1070825
   0.4440914   0.5686618  -0.3965928  -0.3065465  -0.3755690  -0.2018279
  -0.0876046  -0.4103770   0.5895622  -0.8748060  -0.3208515  -1.0494761
  -0.1021132  -0.0795553   0.0245176   0.7453595  -0.1026712   1.5054057
  -0.2364619   0.3736972  -0.7687860   0.1345935  -0.2758804  -0.1813766
  -0.9243443  -0.2732851  -0.4521577   0.2780783   0.8139763  -0.2877242
  -0.0692778  -0.0473963  -0.4497729  -0.5950382   1.0496729   0.3923757
  -0.7707843  -0.5210670  -0.3434983  -0.0279438   0.1027735   0.0597565
  -0.3440870  -0.5039462  -0.1671054  -0.5713314   0.8259039  -0.1654158
  -0.1590752   0.2721666  -0.0139871   0.7883311  -0.2415790  -0.0275126
  -0.8629791  -0.6823443   1.0612269  -0.2099220  -0.0305607  -0.1398155
   0.1805183  -0.5675199  -0.4023396   0.6186879   0.3337483   0.0196570
  -0.0225626   0.2063284  -0.0112010  -0.9309442   0.0137128  -0.3595590
  -0.0359794   0.5318660  -0.0122036  -0.0243050   0.3110973   0.1515267
   0.1548135  -0.0554279  -0.2720494   0.1509291  -0.1190502  -0.3908911
   0.1900624   0.0028304  -0.2593871   0.2463859   0.0933025  -0.2164945
   0.0117953  -0.1128881  -0.3430269  -0.2208258  -0.1269094   0.1708639
   1.4849212  -1.0190432  -0.2020780  -0.1946920   0.0132494   0.1337312
   0.1340036   0.1863974   0.1308026  -0.0419178   0.4006407   0.3604871
   0.1922145  -0.8622640  -0.2359577   0.1072109  -0.0541301  -0.0014970
   0.9247611  -0.4845409   0.1036760   1.0799638  -0.7953160   0.5528894
   0.1144446  -0.0472181  -0.2649941   0.3454786  -0.2436878   0.0635317
  -0.7637602  -0.8650977   0.4516048   0.2292483   0.1269147  -0.0506089
   1.3580531  -0.6744225  -1.5781169  -0.3107736   1.0436821   0.9656633
  -0.2804566  -0.1435487  -0.0674496   0.4674584  -0.0287906   0.8544577
  -0.7931308   0.2023246   0.1114301  -0.2048432   0.0142122   0.0226584
   1.2089988  -1.0626382  -0.5860290  -0.4084979   0.1530018   0.1048855
   0.0036892   0.2402534  -0.0953015   0.4404257   0.4437437  -0.4316274
  -0.6937388  -0.3962446  -1.0311164  -0.1192682   0.1500216   0.1379508
  -0.0838005  -0.3156799  -0.0734528   1.3653690  -0.0132923   1.0391303
   0.0294481  -0.1091565   0.2054389  -0.1372323  -0.1340735  -0.7749226
   0.7882434  -0.3453267   0.4478046   0.2629611  -0.1035407   0.0155984
  -0.2285100   0.4627311   0.6021349  -0.5446605   0.1857894  -0.0851871
   0.0330667   0.1241246  -0.3545128   0.1740208   0.4435167  -0.6354286
   0.6267372  -0.7753527  -0.6154956  -0.2108747   0.0811284   0.1091784
  -0.1927362   1.0136623  -0.2747373  -0.3386460  -0.1733923  -0.0695381
   0.0823584  -0.0764836   0.3071724   0.0926072  -0.0662830   0.2668120
  -0.6145430  -0.7700106  -1.0195279  -0.1466774   0.0876920   0.3833400
   0.5028461   0.7000343   0.8325833  -0.4995575  -0.4029301   0.1408498
   0.0161970   0.0557483  -0.0924603  -0.4545946  -0.0123398  -0.3578900
   0.1879686   0.1595269  -0.1035330  -0.1091705  -0.1531553  -0.0637121
   0.5389317  -0.6321241  -0.5661836   0.0542495  -0.3230710  -0.1791318
  -0.3638795   0.0233753  -0.1078791  -0.3944245   0.8931421  -0.0508218
   0.4020617  -0.4224500   0.5163614  -0.1786356   0.1510166   0.2308436
   0.3865326  -0.5052047  -1.9796054  -0.2311236  -0.0249418   0.2629395
  -0.4148407  -0.1370770   0.0601873  -0.1985467   0.1790793  -0.0230145
  -0.7203831  -0.0622265  -0.1605914   0.1578769  -0.0524876  -0.1057392
  -0.0616816   0.2131439   1.1540033  -0.0669364   0.1618085   0.9702020
   0.3691017  -0.0613473   0.0141285  -0.6664239   1.0625706  -1.7227972
  -1.3325248   0.8336220   0.2128455  -0.2486987  -0.3556830   0.1600804
   0.9678182  -0.1632326  -1.5408025   0.0444898  -0.2228992  -0.2386610
  -0.0459426  -0.3709105   0.1634880  -0.2544713  -0.6182577   0.2517179
  -1.2561837  -1.2244168   0.0908780   0.2460337  -0.1087111   0.0757691
   0.6623411  -1.7740967   0.5787148   0.4294057   0.2585753   0.6680849
  -0.1597857   0.1919152   0.0889831   0.2671284  -0.3998241   0.1136941
  -0.7326986  -0.1799267   0.0297064  -0.2356546   0.0951651   0.4173859
  -1.1863179  -0.3042039   0.2650914   0.4860165   0.4836050   0.0044193
  -0.0969638  -0.0346625  -0.2933774   0.1589151   0.0473512   0.0603014
   0.3641712   0.0679351   0.0672641   0.0854831  -0.1738843  -0.0984400
  -0.2216632   0.3782081   1.0957066  -1.0690649  -0.0507176  -0.8127066
  -0.2500330  -0.1646979   0.1415633  -0.5562383  -0.3690956  -0.0677203
  -0.3837367  -0.0566595   0.1129778   0.1381320  -0.2179398   0.1183625
   0.2003398   0.0300338  -0.0078960   0.0229520  -0.0677778   0.3909946
  -0.1943179   0.0877445  -0.0411293   0.5632067   0.3939023  -1.4853051
  -0.7897755  -0.3494486  -0.8952140   0.2883089  -0.0969304  -0.0824779
   0.1210671  -0.2780866  -0.5218032   0.3878023  -0.2609084  -0.2354895
   0.3397080   0.1713756  -0.1626842   0.4377812   0.0102893  -0.1767240
  -0.3468760   0.4113622  -0.3151425  -0.1530727   0.0115532  -0.1726176
  -1.0297136  -0.8515067  -0.1609173   0.8723893  -0.6487830  -0.1203124
   0.1220705  -0.1072162  -0.1989381   0.3774798  -0.9986989  -0.6631186
  -0.0182425  -0.2552494  -0.3451161  -0.1103148   0.2125809  -0.2290219
  -0.1387318  -0.7729138  -0.2145084   0.0731237  -0.1241902  -0.6741800
   0.3918137  -0.1915688   0.1022548  -0.9391757   0.5001565   0.4896728
  -0.1003079  -0.8852228  -1.1504390   0.0448221   0.3315413   0.1814900
  -0.0872246   0.1388571   0.3935199   0.1966456   0.5924796   0.9616913
  -0.0356694   0.1545481   0.1309795   0.3227352  -0.2046981  -0.8197454
   0.4322957   0.1349814  -0.1426555  -0.0224085  -0.1432558   0.0739463
   0.2907254   0.6474571   0.7246685  -0.3597293   0.9637206   0.7873777
  -0.0255162   0.1660443  -0.5347541   0.3463247   0.0696328   0.0766268
   0.3555032   0.3187815   0.6670179  -0.1912369   0.0711114   0.1860771
  -0.5048230   0.1505472   1.3113641   0.1082993   0.9329158  -0.0860084
  -0.1436568  -0.1572801  -0.1155942  -1.4967523   0.6152482  -0.5344170
  -1.1064723   0.1629659   0.0609276  -0.0311612   0.2954777   0.3018620
  -0.0042042  -0.4142377   0.9401820   1.0725166   0.2622860   0.0373483
   0.1308397  -0.2130502  -0.1205267  -0.3847670  -0.5502337  -0.0425251
  -0.7002327  -0.8999130   0.4801912  -0.0619532   0.2523631   0.1941517
   0.0168823  -0.3959935   0.2882936   0.1774239   0.4334132  -0.2169467
  -0.2373560   0.0505786   0.1078310   0.5210972  -0.6856048   0.6231789
   0.0770126  -0.0439526  -0.8333956   0.1477744   0.0430008   0.2657916
   1.1569683  -0.4258413  -0.3423110   0.0064763   0.1412489  -0.4862348
  -0.1981581  -0.1121248   0.1727364  -0.4428527  -0.4471822  -0.1420809
  -0.0759103   0.1191048   0.4432436   0.0561460  -0.2289606  -0.1457236
  -0.5262166   0.5453618  -0.0715452   0.8798506   0.4530232  -0.6503718
   0.0696199  -0.1852548  -0.0325510   0.3587659  -0.4555955  -0.2444702
  -0.1199479   1.3022777  -0.5566052   0.0941548  -0.0156017   0.1837078
   0.2732302   1.1367048   0.2097355   0.1485680   0.0669667   0.7742369
   0.0906999  -0.1388577  -0.1030330  -0.9413230  -0.4352999   0.3929922
  -0.5984621   0.2472353   0.1562937  -0.1232106   0.1438546  -0.3757367
   0.4597384   0.5864814  -0.5648684  -1.4644494  -0.2043174   0.2362395
  -0.1847618   0.1652835   0.2261169   0.7481278   1.2306272   1.0669036
  -0.1282837  -0.6517059   1.3363858   0.0295773   0.1195743   0.3609986
  -0.6810902  -0.1935111   0.1104871  -0.5010733  -0.4876352  -0.5522598
  -0.2132702  -0.0667331  -0.0089740   0.7792859  -0.0516714   0.4172978
   0.2682084  -0.6156723  -1.0398271   0.0923186  -0.3478179   0.1355308
  -0.8023937  -0.5502084  -1.4289065  -0.7705720   0.5637608  -0.4125292
   0.1113196   0.0816452   0.3034712   0.6968628   0.0224353   0.4109135
  -1.3506522  -1.1623165   0.9956768  -0.0405788   0.1220219   0.0973748
  -0.4767133   0.2603422   0.1813217  -0.6394119  -0.3836275  -0.6617138
  -0.0851635  -0.0088994   0.1406482   0.4548222   0.2898348   0.0119586
   1.0151458  -0.1565175   0.6019810  -0.1802227   0.5051065  -0.1430168
   0.5061247  -0.7436623  -1.5085797   0.1352458  -0.3980481   0.2500002
   0.2452046  -0.4689000   0.0043988   0.4378968  -0.5914336  -1.2057335
   0.7673348  -0.4914630   0.1133642  -0.0236724  -0.0667453  -0.0780877
   0.5501948   0.8173090  -0.2749302   0.0388021  -0.0797284   0.9989629
   0.0603925  -0.0329934  -0.1550139  -0.5052497  -1.0350856  -0.7975431
  -0.3900467  -0.4959195  -0.8857418  -0.0984221  -0.2115610  -0.2941593
  -0.0335660   0.5439814  -0.0367172  -0.0339357   0.0866531  -0.0784974
   0.1003028   0.3891229  -0.2723811   0.2422920   0.1247099  -0.4300344
   0.7650358   0.0042734  -0.3983281  -0.2510287  -0.1406937  -0.0726283
  -0.5729443   0.3060329  -0.4887403  -0.3634816  -0.1246760  -0.4407445
   0.1758205   0.0639133   0.1089399   0.2990876   1.0241578  -0.7816623
   0.0177163  -0.7879031   0.3307446  -0.1439537  -0.4606862  -0.2142214
   0.3651169  -0.1519353   0.3419506  -0.5537418  -1.4590657   0.4318204
   0.1288749   0.0556592  -0.0597033   0.8969182  -0.8098613   0.9554378
  -0.2736763  -0.4056254   0.6051700   0.0807280  -0.2114922  -0.2448980
  -0.5717269  -0.8155851   0.1330459   0.2683292  -0.3016767  -0.6015367
   0.1730423   0.1376710  -0.0525406   0.1837923   0.3410241  -0.6205631
  -0.7387890   0.2334862   0.2887128   0.0373880   0.1324747  -0.1884251
   0.0806392  -0.6350183   0.3305426  -0.5725855  -0.1088856  -0.6232092
   0.0472268   0.0451398   0.1288018   0.3515297   0.6479834   0.3350855
  -0.3957141  -0.4395507   1.0872012  -0.2238912  -0.1715220  -0.2276162
  -0.1349257  -0.0553435  -0.0041893  -0.2683189  -0.1142320  -0.3102205
   0.0993695   0.1651008   0.2454938   0.4731998  -0.0774883   0.3211334
  -0.6120575   0.2086257  -0.3133064  -0.0663351   0.2151117  -0.0904053
   0.6221459  -0.5993569   0.0608627   0.5130117  -0.1832213   0.5549242
  -0.1898443  -0.1182488  -0.2462455  -0.2751786  -0.5828299  -0.3362530
  -0.2474016   0.5530289   1.0132969   0.1718108   0.3339681   0.1965028
   0.5278971   0.1225868   0.7415318  -0.9098650   0.5225227  -0.1859236
   0.2625017   0.0140892  -0.0417923  -0.1932902  -0.6354451   0.0006295
   0.9090469   1.2507036  -0.4919081   0.1489754  -0.2470778  -0.4774769
   0.1706877  -0.0722315   0.1546481   0.5510643  -0.5887289  -0.9780013
  -0.1932064  -0.1719771  -0.0780914   0.4304907   0.3030344   0.7794793
  -0.0938872  -0.5597478  -0.9071667  -0.3680427   0.0685348   0.1150699
   0.9282493  -0.2127165  -0.0819564  -1.0012481  -0.4740089   0.2561468
  -0.1749751   0.2773456  -0.2151742  -0.3036368   0.2608190  -0.3534650
  -0.3366521  -0.0880964   0.2051911   0.1384157  -0.0453116  -0.1965982
  -0.1919337   0.4514798   0.1829028  -0.1591345   0.0933362   0.1208637
  -0.2856090   0.0419649   0.0625849  -0.4215917  -0.1051163  -0.0013970
  -0.1464169   0.0662803  -0.1449385  -0.4806810  -0.3124512   0.0972977
   0.1237704  -0.8613695   0.5310797   0.6881923  -0.3436546   0.1727938
   0.0156510   0.0960717   0.0990125   0.8239757  -0.6570802   0.1979238
  -0.0950256   0.3561256  -0.4048379   0.3800667  -0.1059225   0.0121026
   0.7438890  -0.2829688   0.4425208   0.8733798   0.0928672   0.8832917
  -0.0665970   0.5395463  -0.2217723  -0.6202511  -0.1268385  -0.2497205
  -0.1671049   0.9787216   0.1512795   0.2481314   0.2555879  -0.2176494
  -0.3748397   1.6081608  -0.5161148  -0.3690509  -0.4204488  -1.0156206
   0.0440522   0.2609325  -0.0043188  -0.1879605   0.0652435  -0.5609192
   0.7267597   0.1358018   0.1733460  -0.0644610  -0.2976259  -0.1574179
  -0.7130765  -1.0105596   0.0634071  -0.3906767  -0.1954774   0.2817338
  -0.2335193  -0.1135138  -0.1121280   0.4766069   0.1525078   0.9895104
   0.0374961  -0.2342529   0.3201721  -0.3953586   0.1297973  -0.0865957
  -0.5231036  -0.2906218  -0.2769408  -0.6269524   0.3732271  -0.3745433
  -0.2608833  -0.0995500  -0.1229178  -0.6595761  -0.7461663  -0.3176331
  -0.1522263   0.2063593   0.0594272  -0.1037697  -0.1044883  -0.1113496
   0.1540579   0.0466929   0.2197144   0.5071129  -0.7204010   0.1946000
  -0.0140867  -0.0944111   0.1368157  -0.3353955   0.5010051   0.2400707
   0.3935213  -0.8293606   0.0807530  -0.4031741  -0.1229744  -0.0513784
  -0.2157067  -0.4881676   0.0953567  -0.7953582   0.6276407  -0.5324535
  -0.0884243  -0.0991070   0.2518291  -0.1976202   0.3250293   0.0352424
  -0.7134298  -0.1241579   0.9280923   0.0343822   0.4544842  -0.0433998
   0.0177805  -0.0194779   0.1828721   0.3490437   0.1486878  -0.5388860
   0.1357387  -0.0666646  -0.2469444  -0.1082236  -0.2546547   0.1657845
  -0.5123755  -0.5412921   0.7575717  -0.1028545   0.1958329  -0.0024955
  -0.3303110  -0.3997983  -0.6396326   0.0617548   0.2350160   0.0776520
   0.1855175   0.0564519  -0.2123566   0.2898167  -0.1156174  -0.5086366
   0.0042327   0.3106033   0.1663570  -0.0798815  -0.2048970  -0.2164623
  -0.0320031  -0.2393198  -0.2532998   1.1403897  -1.2404526  -0.3828850
   0.0589408   0.3152596  -0.1835199   0.1777381   0.2354442  -0.8939414
   0.0356247   0.6242454   0.1172463   0.1912901   0.1950485  -0.2155998
  -0.0124619   0.0502332   0.0289075   0.1446651   0.3263245  -0.2421322
  -0.1138079  -0.1357833   0.3378229   0.4024684  -0.9839167   0.2797603
   0.7302257   0.1925786   0.0353779   0.0755211  -0.0423212  -0.0865514
  -0.6084380  -0.0483033  -0.0325482   0.4524708  -0.0638165  -0.1373501
   0.1440231  -0.1699309   0.1469544   0.0328469   0.9318790   0.9543006
   0.6183326   1.2238229   0.4420815  -0.3147377   0.0042886   0.1685099
  -0.6806970   0.6871667  -0.0128614  -0.0521688  -0.4917958   0.2922899
   0.1221067   0.4020916  -0.2687095  -1.4697099  -1.4181120  -0.8383999
   0.2923276  -0.1956352  -0.4368860   0.2104510  -0.1453109  -0.0125515
   0.3268678   1.0073102  -0.0003065  -0.0327311  -0.2827452   0.7217697
  -0.0994445  -0.1567752  -0.1245648   0.9911689   0.0596199  -0.2034101
  -0.3248281   0.6653039  -0.8004879   0.3075420   0.1280415   0.4243667
  -0.2991038   0.7798158   0.2837439   0.2970585  -0.0579481   0.0838400
   0.1104805   0.0472728   0.2674041   0.2358414  -0.0055585   0.0485388
   0.2597538   0.1471346   0.2638097   0.0300220  -0.0567032   0.0425620
   0.8415781  -0.1762070   0.0821522   0.2586072  -0.2262625   0.1160955
  -0.0836516  -0.1937636   0.3419605   0.8005809  -0.4356716  -0.5119081
   0.9162609  -0.0242093   0.1914110  -0.0110020  -0.2002764   0.1835393
  -0.1871059   0.4470886  -0.0510449  -0.1710904  -0.7626795  -0.1383762
  -0.0036210   0.2510713   0.3059615   0.7320435  -0.5177133  -0.1812035
  -0.9544512   0.1767693   0.5196032   0.1194557   0.0738419   0.0009928
  -0.3595934  -1.4001339   0.7029345   0.3561927   0.5900086  -0.0770258
   0.0060539  -0.2294636   0.4160735   0.4851450  -0.5781877   0.4022936
  -0.1448780   0.0692196   0.1060304  -0.0947067  -0.1253291  -0.1860588
  -0.0793143  -0.9677628   1.4081088  -0.3263571   0.0053405   0.3350608
   0.0231232  -0.0317281  -0.2169919  -0.3684698  -0.4199977  -0.1572035
  -0.4408161   0.1750639  -0.3287208  -0.0650620   0.0405830  -0.5579109
  -0.0355036  -0.5564685  -0.0106484  -0.0380097   0.4202061  -0.9486304
   0.1700423  -0.0211358   0.1104159   0.7935442  -0.6726399   0.1687572
  -1.2363940  -0.1328216   0.0537408   0.5515289   0.0023343   0.0810283
  -0.7815032   0.1630028  -1.1412013   0.7816641   1.2335714   0.3337731
  -0.2047006   0.0512900  -0.0745237   0.6993721   1.2887013  -0.1026961
   0.8345492  -0.1068505   0.9859564  -0.1136296  -0.0620955  -0.6310322
  -1.3655026   0.0833729  -0.9257551   0.8083022  -0.3116334  -0.4087705
  -0.2193330   0.0827731   0.3425061  -0.4471050  -0.3065749  -0.3809797
   0.2209095  -0.1828659   0.6121440  -0.2462898  -0.1107168  -0.0019502
  -0.2842858   0.6020947  -0.4815409  -0.1846235  -0.3106567   0.4958549
   0.1424671   0.2745882   0.0921266   1.8400986   2.0949332   0.3506673
  -0.0254912   0.1377970   1.3098631  -0.0545843  -0.3666745   0.2043793
  -0.2779595   0.7868291   0.3331798   1.0830668  -0.4786442   0.4152915
  -0.0753204   0.2990970  -0.3097574  -0.3124157   1.0862244  -0.4728518
   0.1958976  -0.8004286  -0.1011019   0.0095414  -0.3681718   0.4594931
   0.0986367   0.6107910   0.3591852   0.4341894   0.5044514   1.5700246
  -0.0013710   0.5488311  -0.1529370   0.1276445   0.6039112   0.2136002
  -0.3421100   0.8338532  -0.4980898   0.1004154   0.2312941  -0.1566713
   0.1905842  -0.1140598  -0.2512921   0.0918163   0.3447561  -0.4895015
   0.0222955  -0.0213305   0.5224567  -0.1669548   0.8974869   0.4562517
   0.3968788  -0.0864691   0.3176326  -0.0354577  -0.2276990   0.1657730
  -0.7935014  -0.0679932   0.9599509   0.0417543   0.0524170  -0.4711335
   0.3139361   0.2881336   0.1445286  -0.1345252  -0.6470819   0.0078925
  -0.5530089   0.2919687   0.6319301   0.1224021  -0.1999812  -0.2890343
   1.0537006   0.3754793   0.8098640  -0.0748629   0.1710722  -0.1912719
   0.0837555  -0.1751101  -0.0746598   0.3959022  -0.5196724   0.5217318
  -0.5843013   0.4670182  -1.2772376  -0.0892591   0.1947295  -0.3015648
  -0.1157838   0.7657874  -0.2170945  -0.0247691  -0.0989740   0.1281969
  -0.2067932   0.2004375   0.2947375   0.3321384   1.1056157   0.1218837
  -1.2300866   0.3237947   0.2302655  -0.1823375   0.0257647  -0.1121672
   0.0221615  -0.0383271   0.4113162   0.6285109  -0.3811267  -1.0584291
   0.2006057  -0.2637749  -0.3422230   0.7601466  -0.1138948  -0.7753890
   0.6214055  -0.2771795  -0.5679055  -0.2790860  -0.0918622   0.2061259
  -1.0591287   0.0775351   0.3899794   0.0311657  -0.4943968  -0.3339783
   0.1257083  -0.0114955  -0.1672888  -0.2297395  -1.1876223  -0.3026174
  -1.4195491   0.6716356  -0.1578117   0.1389723  -0.0099804  -0.1710660
  -0.0931287  -0.3910855   0.2268597   0.4330625  -0.3399225  -0.1066082
   0.0948714  -0.0052355  -0.3419274  -0.6584476   0.0948394   0.3312661
   0.9128080  -0.7270443  -0.4389168   0.2072211   0.1952791  -0.3309831
   0.0383572   0.8541688  -0.9171506   0.6481995   0.0231000   0.4731692
  -0.0940231   0.0590188   0.0339921   0.1584096  -0.2078154  -0.3622422
  -0.0220811   0.6446404   0.2621954   0.1422665  -0.1161427  -0.0904761
   0.6153606  -0.1942366  -0.8874214  -0.5326164   0.3838600   0.4431073
  -0.3127810   0.0030967   0.0182212   0.6703113  -0.7434017  -0.6765994
  -0.9397352   0.1183686  -0.2856260  -0.0891783  -0.1626328  -0.0937331
  -0.7625126  -0.3995943  -0.8538798   0.3795254  -1.2943971  -0.2423411
   0.2021013  -0.0499679   0.2985825  -0.0395680  -0.1374640  -0.0413355
   0.4956718  -0.1293201   0.2281399  -0.0840350  -0.2042385  -0.0890535
   0.5822700  -0.3253076   0.0178185  -0.9544919  -0.2384102  -0.3500549
   0.3130828  -0.2773208  -0.0579676  -0.4657286   0.0018321   0.4935207
   0.7185585   0.4434779  -0.6454789  -0.1201907  -0.0646654  -0.0300938
   0.1327534  -0.9708641   0.7418953  -0.6440737   0.1193001   0.1244042
   0.1706858  -0.1639462   0.2548791   0.1563497  -0.0926802   0.2061549
  -0.1630212   0.8725415  -0.3743852   0.0660385  -0.0047075  -0.0796592
   0.2530582   0.5989215  -0.7837503   0.7021801  -0.4772825   0.0940572
   0.2088963   0.0203399  -0.1360005  -0.7572101   0.3601071  -0.3108139
  -0.4260623   0.0506607   0.1040032  -0.0833930  -0.0470371   0.0329870
  -0.0704732  -0.6370694   0.0513891   0.2835111   0.2803823  -0.1182453
   0.3472070  -0.1546657  -0.1425159  -1.5865532  -0.9268062  -0.8161828
   0.4193078   0.1721474   0.6671193   0.1649525  -0.1912579  -0.4725763
   0.4246947  -0.3265531  -0.2408806   0.2759504  -0.2660859  -0.3627794
  -0.1354184   0.2818100   0.0367790   0.0826059  -0.0675299   0.0775020
  -0.4092686  -0.1080234   0.0813591   0.3434078  -0.2554355   0.1565139
   0.4291835  -0.0469487  -1.0625303  -0.8520737  -0.7123807   0.3268382
   0.1731796   0.0835623  -0.2995029   0.1210424   0.5325757   0.2565975
   0.1245835  -0.3031132  -0.7491735  -0.0816293  -0.3007755  -0.1230567
   0.1073325   0.6965301  -0.2330967  -0.1293728   0.9619255  -0.9411812
   0.3282705   0.0647969  -0.0698987  -0.0057257  -0.4873958   1.2530930
   0.5358107  -0.0216510  -0.2412129   0.1714829   0.0777677   0.6211803
   0.5103243   0.3925965  -0.7570641  -1.1985628   0.6406063   0.7393382
  -0.0413644   0.1685512   0.0044480   0.5470550   0.5472012   0.3030723
   0.7906501  -0.2610476   0.6607450   0.2150615   0.0960778  -0.1518413
   1.0621258   0.1779628  -0.3901785   0.6354832   0.2669010  -0.2272469
   0.1531888  -0.0474878   0.2769303   0.4538043   1.2576567  -0.0515022
   0.5271609   0.1114989   1.5577892   0.1186455   0.1189450   0.1791409
  -0.1355347  -0.0597518   0.6875348   0.1215713   0.1335880  -0.0385918
  -0.1552550   0.3024995  -0.1178022   0.0741228  -0.3946969  -0.3553989
   0.0150408  -0.1095147  -0.3604930   0.0757430  -0.1931134   0.1500678
   0.8978661  -0.7503315   0.5066160  -1.5877859   1.3957247  -0.0853453
   0.2261884   0.2236141   0.3841814   0.8891430   1.0662540   0.4006938
   0.5510916  -0.0308690   0.6723275   0.0713099   0.0606073   0.2128448
   0.1988978   0.4833216  -0.0463807   0.0791399  -0.4673589  -0.0719537
  -0.0463523  -0.2223249  -0.2260659   0.2900553   0.5664571  -0.5673291
   0.7931803   0.2792443  -0.7771339  -0.1115582  -0.0883780  -0.2465938
   0.2874902   0.3276448  -0.0623414  -0.1199335  -0.3857864   0.1730127
  -0.1243614   0.1117561   0.1935102   0.0075971  -0.3966375   0.0008697
  -0.5134201   0.0587588  -0.0580827  -0.3416311   0.1620969  -0.1782292
  -1.0625082   0.0806035  -0.6113413  -0.0331429  -0.8254866  -0.2187502
   0.0516526   0.2791983   0.1912925  -0.0498061  -0.1222237   0.0108314
   0.2049459   0.1581992   0.1220878   0.1883373  -0.1680146   0.2551712
  -0.8338268   1.1229305   0.0871059   1.0866647   0.3226613   1.6580620
  -0.3427825   0.0343655  -0.1012967  -0.4256772   0.2370842  -0.2103266
  -0.3248551  -0.0921429  -0.2037881   0.1179246   0.1198098   0.2668708
  -0.2241324  -0.4557168  -0.3264294  -0.2762611   0.1362615   0.0100514
  -0.1996527  -0.1455736   0.1379514  -0.2024122  -0.6933110  -0.0924348
  -0.5232183   0.4208992   0.5961649  -0.0215713   0.1606297   0.2241484
  -0.3395471  -0.1247890   1.1000087   0.8921408   0.1233013   0.6752349
  -0.0104845  -0.5426050  -0.0552870  -0.9093415  -0.6567455  -0.0155148
   0.2685988  -1.6620848   0.1033237   0.1330926  -0.0995882   0.0329375
   0.9583672  -0.2192780   0.8184573   0.5011228   0.6071919  -1.0742900
  -0.3173376   0.1605473   0.0389701  -0.1387505   0.8200205  -0.3653098
  -0.9158143  -1.8947277   0.2916033  -0.0769190  -0.0981334  -0.0984116
   0.6355540  -0.9831443   0.3068965   1.1922063   0.1430624  -0.0662611
  -0.2411430  -0.0603537  -0.3590888  -0.2893637  -1.0630261  -1.3151083
   0.3280870  -0.3711235  -0.5430042   0.3105143  -0.1752171   0.1780807
  -0.3701099   0.0516187  -0.4569072  -0.2883125  -0.0867980  -0.2444960
   0.0232158  -0.4794794  -0.0256524   0.6095274  -0.5122637  -1.1922467
   0.2191587   0.8245666   0.0932608   0.0617303   0.2093785   0.0968845
  -0.2420162   0.1613462  -0.2655811  -0.0433616   0.2189833   0.2579701
  -0.0589617  -0.1471791   0.1013633  -0.2282154  -0.1236600   0.2848911
  -0.2000634  -0.2354829   0.2615825  -0.0120010  -0.4170716   0.1157836
  -0.0957109  -1.2140410   1.3569921  -0.1163154   0.8123338   0.4673301
   0.2691326  -0.2586594   0.0097503  -0.7241082  -0.6130174   0.4394607
  -1.1043732   0.2904455  -0.7462865  -0.0405714  -0.1284421  -0.0175048
   0.1109548   0.1372130  -0.0017965   0.0002803  -0.1849081   0.1970967
  -0.2979311  -0.1696363  -0.0009219   0.2947882  -1.2805242   0.4269546
  -0.9622964  -0.0893185   0.2429751   0.0498289   0.1828065   0.2079805
  -0.7011254  -0.4991960  -0.2978911   0.2316792   0.6952957  -0.2149522
   0.0463131  -0.3440980   0.1124917  -0.0330114  -0.8652772   0.9192393
  -2.4422055  -0.1342854  -0.0998870  -0.1748922   0.1058319   0.1036319
  -0.9817796   0.2558251  -0.5128952  -0.1442556  -0.6843719   0.8195114
   0.1449287   0.0760417  -0.1185365   0.7412832   0.7940953  -0.4720503
   1.0290262   0.2814756  -0.5521841   0.1312079  -0.0890430   0.0631021
  -0.1334743  -0.3168980   0.4000161  -0.0047012   0.3166777   0.6486404
   0.0587207   0.2060500   0.0384902   0.1316129  -0.6723682   0.5452855
   1.4662071  -0.3676535  -0.4385678   0.0217666   0.2234329   0.0758798
  -0.8242147   0.1757899  -0.3575228   0.0599250   0.2254156   0.0906195
   0.2035713  -0.1161151  -0.0132909   0.9487843   0.9127839  -0.1634150
  -0.4298929  -1.2322340  -0.7900567   0.0582607  -0.1987617  -0.0578892
   0.0328332  -0.5847691   0.2626907   0.3159548  -0.4537393   0.2284614
  -0.0385073  -0.1581279   0.2009278   0.0240139  -0.1084950  -0.0903784
   0.1221129   0.0044166  -0.2562735   0.1206613   0.1857597  -0.0145760
  -0.1860653   0.1304225  -0.0588569   0.3265874   0.6408816   0.1875332
  -0.1512150   0.2074510  -0.1313679   0.1377210   0.4931746  -0.0787879
  -0.1221421   0.1949417   0.0017340   0.2081030   0.2385411   0.0259123
  -1.4578184  -0.6283870   0.1178895   0.1876804   0.2593556   0.2284358
   0.0127269   0.0233939   0.0983953   0.7626131  -0.7015788   1.3047955
   0.0349909   1.7117845  -0.2652346   0.3224399  -0.0523309   0.2651792
   0.2001669   0.0447951   0.3816999   0.2090571  -0.1258026   0.4062574
   0.3601513  -0.0740249  -0.3122665   0.2920744  -0.7317370  -0.8482039
  -0.5353791   0.4657008  -0.1479024   0.0764664   0.0020942   0.0541694
   0.1425306   0.0514676   0.5497639  -0.2266541   0.2197722  -0.1572251
  -0.2452175  -0.1679073   0.2304018   0.3118482   0.1762678   0.7633214
   0.1562060   0.3857909  -0.5815731  -0.1481496   0.0047348  -0.1201361
  -0.2821645   0.1186176  -0.1867494   0.4467751  -0.4614480   0.0497715
  -0.5387082   0.2363536   0.0546283  -0.2370756  -0.0731077   0.7678137
  -0.0691071   0.3353041  -0.5401876   0.0719189   0.2340999  -0.3103501
  -0.4203801   0.1809573  -0.9070207   0.0923822  -0.4927857  -0.1430979
  -0.2493277   0.0721256   0.4203794   0.6093053   0.0954071  -0.4943351
  -0.0438086   0.3069220  -0.0335509  -0.1423209   0.4759635   0.1299986
  -0.7972571   0.2187164  -1.0966367   0.0285653   0.4369588   0.6910858
  -0.0684928  -0.0989404  -0.1420771  -0.6668532  -1.2017410   0.7677737
  -0.5525119  -1.3328921  -0.2007963   0.0713176  -0.0379498  -0.1107752
   0.1551203   0.7093662  -1.7104572   0.2611383  -0.1737866   0.6747523
   0.2291393   0.0489058  -0.3588756   0.3220402   0.1767956  -0.4740947
  -0.2296474   0.6743463  -0.1723889  -0.2277227  -0.0001285  -0.4136581
  -0.4056627   0.0017189  -0.3653713   0.2125057  -0.2247094  -0.9847488
  -0.0211250   0.2153485  -0.1966474  -0.4890327   0.5154308  -0.9014371
   0.6144371  -0.4511237   0.5756781   0.0116928   0.1983469  -0.1363048
  -0.4019048   0.1564149  -0.1247182   1.3552555   1.3833346  -0.4317217
   0.2602870  -0.0251772  -0.0580191  -0.9580593  -0.4791074   1.6092227
  -0.2691691   0.3764117  -0.0383803  -0.3307887   0.0558191   0.0703342
  -0.4469012   0.1764687   0.3280481   0.0123127  -0.2420012  -0.5767162
   0.2462927  -0.2238290  -0.0827109  -0.0215730  -0.8217468   0.1753975
   0.7802275   0.1077438  -0.0880598   0.0034261   0.1976588   0.0118740
   0.4995447   0.9610424  -0.0044650   0.7928900   0.1453316   0.0303232
  -0.1253925   0.1202112  -0.1505698  -0.4866974  -0.6899392   0.5798075
   1.4552607   0.7146982   0.0027208  -0.0710909  -0.0864357  -0.1660366
  -0.3087870  -1.0743118   0.1358000   0.2501481  -0.0687329   0.2747307
   0.2981955  -0.0791158  -0.1557218  -0.1075539   0.0934159   0.1096755
   1.0113653  -0.6943437  -0.6501260  -0.0781623   0.1579892  -0.1194458
   0.6014562   0.0576126  -0.4895795  -2.3625917  -0.3475492   0.3963466
   0.0188216   0.0044621  -0.1138122  -0.0717233  -0.2308282  -0.4156250
  -0.6284141   0.0804312   0.2280907   0.0290647  -0.1041271  -0.1313686
   0.2034736  -0.3028459  -0.8782363   0.0735986   0.3073742  -0.4375502
   0.1992709  -0.7041116   0.2806165  -0.0768444  -0.3694522   0.4691251
  -0.1132197  -0.9413104   0.1043695  -0.1389286  -0.0254344   0.1664811
  -0.1706449   1.0744239  -0.0626591   0.3311003  -0.7560043  -0.5676702
  -0.1716538  -0.1571969   0.1213735  -0.1112190  -0.1530207   0.1043965
   0.0073002  -0.0206227  -0.3470897   0.1067376  -0.0987272   0.4287356
   0.0452355  -0.1028392  -0.6604786   0.2391608  -0.2551464   0.1706512
  -0.1017103   0.0568612  -0.1954756  -0.3225631   0.3911460  -0.3917084
  -0.7570628  -0.2242853  -0.0131839   0.0712412  -0.0109903   0.0598630
  -0.0369448  -0.7925168  -0.3285021  -0.0238973  -0.4813814  -0.2302664
   0.4191135  -0.0636428   0.2447814   0.4105257   1.0170179  -0.4132956
  -0.3617093   0.0375098   0.9477865   0.2448306   0.0196546  -0.1088568
   0.0426692   0.3512508   1.6375260   1.8891640   0.0638759  -0.3617987
   0.0858671   0.1865055   0.0091172  -0.9581644  -0.7117642  -0.8838803
  -0.3983662   0.7562440   0.8974100  -0.0029996   0.1493419   0.1835786
   0.5977431   0.1484077   1.7967075   0.1921994   0.1693770   0.7218171
   0.0182971  -0.3451866  -0.1751469   0.4643296   0.7870347  -0.4290389
  -0.4743093   1.0894461  -0.1877935   0.0606149  -0.0520658   0.2220798
   0.1642783   0.3788002   0.6247573   0.6729667   0.0993976  -0.7996460
   0.0847581  -0.0119279  -0.0465962   0.3186202  -0.0108985   0.0723284
  -0.4068712   0.2671651  -0.4378235  -0.1420978  -0.2824184  -0.1088575
  -0.0767166  -0.4476856  -0.4606105   0.1740938   0.2089414  -0.1228574
  -0.1190575   0.1877420  -0.0524914   1.2432976   0.1711725   0.1715558
   0.3531701   0.1422308   0.1648465   0.2362758  -0.3978984   0.1929791
   0.2421244  -0.5670731   0.5940993   0.1959194  -0.3024176  -0.0346130
   0.0132082  -0.2920061  -0.2658555  -0.1722376   0.0039721  -0.2033437
   0.3114922  -0.6569364   0.5136251   0.0919731   0.0256825   0.3581144
   0.8478728   0.5562469  -0.2027685  -0.2480978  -0.2810664   0.6279512
  -0.1206420   0.0566841   0.3288382   0.0923805  -0.1762467  -2.1867745
  -0.5817438  -1.3290150   0.1274314   0.3143195  -0.1355640  -0.1268748
   0.2134128   0.0734228  -0.5744467  -0.2075454  -0.0202338  -0.6327646
  -0.1260512  -0.0802115   0.3200491   0.1157330   0.1315358   0.2508103
  -0.6331619  -0.9329660   1.0398297   0.1809030  -0.2246796   0.0651570
  -0.2876777  -0.3983972  -0.4168343  -0.3229179  -0.3932549  -0.3706340
   0.3300221   0.0014992  -0.0988644   0.6297139   0.2487528   0.4491125
   0.0095573  -0.3570009  -0.7845008   0.2374304   0.1380832  -0.0227363
   0.3416915  -0.2387979  -0.0689828   0.6404106  -0.6783190  -0.0912585
  -0.2669280   0.1318246  -0.1796141   0.3344470   0.2107128  -0.5410145
   0.1238072   0.2014777   0.3082012  -0.0590852  -0.0017984  -0.2360353
  -0.0730193   0.5593385   0.6774361  -0.9885770   0.3175152   0.9093992
   0.0046609   0.1456439   0.1282681   0.6471838  -0.8384547   0.3335409
  -0.4648078  -0.1344216  -0.2771856  -0.1270898   0.1062628  -0.0908591
  -0.9012894  -0.5977117   0.2278832   0.7037840   0.9130483   0.2644129
  -0.2175164  -0.0876809  -0.3423995   0.1249684  -0.3484747  -1.7660322
  -0.1753767   0.1074445  -0.1843050  -0.2275137  -0.5760565  -0.0847733
   0.9482663   0.0941546  -0.7931279   0.5462227  -0.7428551  -0.4482979
  -0.0619028   0.0081539  -0.0382877  -0.8833213  -1.6236279   1.1207032
   0.3497541  -0.6332448   0.3757016   0.0469725  -0.1004762   0.4095825
  -0.1278042  -0.3921470  -0.6320679  -0.9625892   1.1438518   1.0550221
   0.2176198  -0.0830233  -0.0241286   0.7966160   0.0717115  -0.4419275
   0.9117477   0.4108375   0.1847739  -0.2137898   0.1218967  -0.3317086
   0.1910528  -0.1145776  -0.4165675   0.2412306   0.6135882  -0.7918289
  -0.1818230   0.3338114   0.2547720  -0.2727777  -0.8300037   0.0597682
  -0.4680623   0.7810761  -0.6637754   0.1498563   0.1711270   0.0916126
   0.0367220   0.1656700  -0.1253093   0.5860686   0.0306276  -0.2015668
   0.2920565   0.1131485  -0.0749729   0.5448226   0.7211697  -0.9372931
   0.7928905  -0.1632624   0.7916399   0.2387412  -0.2399649   0.1204150
   0.8616882   0.2275559  -0.0103487  -1.1385523   0.0924619   1.4408218
   0.0171762  -0.1049008  -0.1578300  -1.1918137  -0.4360114  -0.3188719
  -0.5627200  -0.2582129  -0.2296255  -0.0755694   0.3642001  -0.2078913
   0.2491001  -0.2854999  -0.0388549  -0.0531374   0.3044781  -0.2144298
   0.2507181  -0.0322241  -0.4163986   1.2936395  -1.1674110  -0.5186173
   0.0520034  -0.1686736  -0.4532579   0.1485855   0.1054081  -0.1682494
  -0.1518656   0.2014798   0.0592009  -0.1930300   0.0492942  -0.3278513
   0.1100094  -0.0947186  -0.1294558  -1.2099760   0.2722074  -0.8845320
   1.0246317  -1.2014846   0.4670099  -0.4527452  -0.2070276   0.0914127
  -0.1771937  -0.7944354  -0.9257806  -0.3207029   0.1752180  -0.2829542
  -0.1910385  -0.1536471  -0.3287212  -0.4672809   0.6867863  -0.2992691
  -0.5703565   0.0847565  -0.3064395  -0.1594838   0.0488475   0.0308983
  -0.2944987  -1.3481239  -0.5272795  -0.7408961  -0.0394003  -0.1247881
   0.2553475   0.1822158   0.2121206   0.0307191   0.0616809   0.2716075
   0.1969053   0.0312807   0.2047435   0.0991751   0.0029825   0.1041504
   0.2549165   1.1259815  -0.4298069   0.2695395  -0.8752777  -0.8004278
  -0.0566218  -0.0254882   0.1523641   0.3324262  -0.0803542  -0.1549803
  -0.9016227  -0.5527775   0.7166367   0.3890793   0.1104884  -0.1569960
  -0.6921831   0.5112613  -0.7268111  -0.2790094   0.0764500  -0.1349359
  -0.0533751   0.0280285   0.1693588  -0.1247809   0.1483417   0.0075543
  -0.0294843  -0.4423500   0.0767634  -0.0773583   0.0655769  -0.2718405
  -1.2830769   0.6826858   0.0512075   0.1009874   0.0129923  -0.2737641
  -0.0586952   0.1859351   0.0017682  -0.1210657   0.5855016  -0.4335542
  -0.2559893   0.2021887  -0.3607146  -0.3509528   0.0561015   0.0619540
  -0.5362035  -0.3335686  -0.4028093   0.6409689  -0.2915939  -0.0653211
  -0.1510157  -0.2298741  -0.0472220   0.2646255  -0.0286885   1.0784116
   0.0308778   0.3580243  -0.7508790  -0.1681615  -0.2640019  -0.1612006
   1.0160012  -0.4248811   0.1907819   0.1897874   1.2170401   0.5002781
   0.1952502   0.2774275   0.0041896  -0.4199359  -0.1132526  -0.6582624
   1.2001897  -0.2742360   0.1981582   0.0084890  -0.0223640  -0.0474414
   0.1026008   0.0125359  -0.8832994  -0.1932437   0.4180872   0.9399930
  -0.0006843  -0.2288873  -0.2061092   1.0757076  -0.0343614   0.5280454
  -0.7784375  -0.4177706   0.5583102  -0.2831300  -0.1155175   0.0003933
  -0.0737656   0.1738102   0.1938431  -0.5008327  -0.1718942  -0.0838840
   0.1690502  -0.1778059  -0.1211561  -1.1028783  -0.0202259  -0.0814074
   0.3704952  -0.9474564   0.3115885  -0.1576761  -0.0177769   0.2105795
  -0.0675478  -0.6027453   0.3187737  -0.6736196   0.1546119   0.1169089
   0.2178657  -0.1849417   0.1561958  -0.7203885  -1.2823403   0.7194504
   0.8433472   0.1228284  -0.0490147  -0.0490307   0.2283993   0.0059461
  -0.6756532  -0.6494208  -0.8963009   0.0210683   0.3834183   0.1292352
  -0.1508292   0.1677712   0.1369738  -0.2328922  -0.5429002  -0.5986332
  -0.4622367  -0.0645718   0.1882881   0.0299605  -0.4201615   0.2080763
  -0.5067992  -0.0256145   0.3743686   0.7823626  -1.1215636  -0.1117789
   0.0153870   0.0457366   0.3128562   0.4426214  -0.5679912  -0.6451696
  -0.9089638  -0.4504401  -0.1392665  -0.3939176   0.2015879  -0.2204107
  -0.6335207   0.1919577   0.2633514  -0.4076390   0.2452035  -0.3080205
   0.0979351  -0.2813297   0.1675792  -0.5281653  -0.4610362  -0.0815477
   0.2075699  -0.8529717  -0.1977127  -0.1285273   0.2742511  -0.1617244
  -0.0198779   0.1495419  -0.1168906  -0.2160661   0.2102364  -0.2405721
  -0.1726883   0.2465109  -0.0875997   0.2922309   0.7339552   0.4029090
  -0.6276531   0.7109671  -0.5371575   0.1037849   0.1547559  -0.3136140
   0.0177051   0.2076830  -0.4943700  -0.0315897   0.2018077  -0.1604981
  -0.4076947  -0.0301408   0.1853673  -0.5234592  -0.5162464  -0.0611824
  -0.3194544  -0.0826995   0.5882330   0.1663362   0.4077151  -0.3136209
   0.9374940  -0.0099360  -0.6111644  -0.2374837   0.2459624  -0.3029463
  -0.3060150   0.0247482  -0.2608349   0.3323276  -0.2882151  -0.1791416
  -0.6359541   0.8781214   0.1197070  -0.1874919   0.0600104  -0.1724094
   0.5156935  -0.3581784   0.0582105   0.1491593  -0.4800324   0.6134818
   0.0555086  -0.0238745   0.4644258   0.9830196  -0.3209623   0.8937230
   0.3314859  -0.2976169  -0.6768458   0.0880660  -0.1523763  -0.1668478
   0.8057517   0.8161258   0.0881409  -0.4654526  -0.7138168  -0.2468846
  -0.2629418   0.1120970  -0.0294399  -0.2708709   0.2249655  -0.4343059
   0.5417083   0.6797090   1.2637124  -0.3624917  -0.0087526  -0.0339888
  -0.3307449  -0.3886342   0.7535010  -0.5161413  -0.6840592   1.1345159
  -0.0152935  -0.1825197  -0.1206001   0.1867187  -0.7401629  -0.0361950
  -0.1393953   0.1443375  -0.1419595   0.4659953  -0.0274150   0.0281765
   0.1943517   0.5982590  -0.0710918   0.2286800   0.1003929   0.0640691
   0.0677398   0.0445416   0.1547136   0.3522885  -0.2020948  -0.1318871
   0.2433779  -0.7285372   0.4302696  -0.1120784  -0.2831743  -0.2448663
  -0.2407360   0.8508952   0.8964387   0.1605250  -0.2420349  -0.0474851
   0.2080574  -0.0079388   0.0780774  -0.2650201  -0.8929360   0.0967072
   0.7083621   0.4188861   0.0990905   0.1473892   0.2346867  -0.0980639
  -0.2112557   0.3591642  -0.0260985  -0.3996279   0.4990478   0.4727413
  -0.3028283   0.1826590   0.1363905  -0.3840336   0.1914462   0.2031044
  -0.6734204   0.1399925   0.5019792  -0.0689067   0.0434689   0.2412999
   0.4106267  -0.2231726   0.2185880  -0.2267878   0.7158995  -0.1168103
   0.1479391  -0.2671195  -0.2525166  -0.1443102  -1.1479220  -0.3982058
  -0.3472958  -0.0689181   0.3331662  -0.0133261   0.2216226  -0.2065496
   0.5089753  -0.3869183   1.1379070  -0.3643467  -0.7463062  -1.1265072
  -0.1334174  -0.0873506  -0.0623621  -0.3258828   0.2062650   0.0707197
  -0.4630737  -0.4727579   0.0692878   0.0040055  -0.0152727  -0.0998203
   0.1153581  -0.3435417   0.1222477   0.4541366   0.4689621  -0.0515995
   0.0102753   0.2304150   0.1714535  -0.3526449   0.2986170   0.4227631
  -0.2036603  -0.1642488   0.4380718  -0.0841871   0.0026001   0.4726616
   0.7504583   0.3443780  -0.1719855  -0.4303016  -0.7122066  -0.6319601
  -0.2778264   0.3415253   0.2233176   0.7690301  -0.2193819  -0.6399693
   0.1115639   0.5829001  -0.4887305  -0.0013538  -0.0516698  -0.1759437
   0.0116133   0.4017610   0.6179283  -0.4612817   0.2889247   0.0476319
  -0.0997882   0.0096418  -0.1268868   0.5194381   0.1170114   0.9689066
   0.0834820  -0.0794542  -0.8301634  -0.0267557  -0.0646156   0.0318460
   0.9207546   1.3591229  -0.4535538   0.0354286  -0.8522504   0.2492841
  -0.2098884   0.4268017  -0.1195490   1.2391734   1.0643003   0.8495921
   0.5664747   0.7666505   0.8050735  -0.3090673  -0.0827499  -0.2040792
  -0.5284414  -0.2375965   0.0570569  -0.3762949   0.0448381   0.6609412
   0.0616704  -0.0482294  -0.2448316   0.6821641  -0.6072458  -0.8249943
   0.2438128   0.4860862   0.2876217   0.0064123  -0.0986492  -0.2179800
  -0.1387695  -0.5109886   0.8292098   0.4419996  -0.0875348  -0.2512529
   0.0852919  -0.1998339  -0.1482948   0.2524440   0.0755494  -0.5671535
   0.4534714   0.0062063   0.0041942   0.1276804  -0.0887543   0.0252011
  -0.0015578  -0.1930118   0.0361707   0.2069548  -0.0409535   0.1021684
   0.1891165   0.0660327   0.1502185   1.0345686  -0.8472051  -0.4887329
   0.4363154   1.5708316   0.4829075  -0.0521472  -0.2127822  -0.0994394
   1.2131490  -0.2623906   0.1522973  -0.4309895  -1.3585908  -0.7970692
   0.2378993   0.0568694   0.0281471  -0.1614758   0.4153735   0.0964359
  -0.1346784   0.1026018   0.2094423  -0.0527268  -0.2332127   0.0971674
  -0.1675115  -0.6673306   0.0860617   0.1136267  -0.6775310  -0.0917164
  -0.1644011   0.3544897   0.0346825  -0.7879392   0.0247656   0.2748508
  -0.2112640   0.9020723   0.0009464   0.0787372  -0.0468601   0.3649130
   1.6598312   0.5627000  -0.1285360  -1.0197660   0.7267359  -0.6292276
  -0.2855101  -0.4308572  -0.1022177   0.0550897   0.0366308  -0.0676820
  -0.9432998  -0.6065536   0.2129277  -0.2142861  -0.0216678   0.3379547
  -0.5251227  -0.5166150   0.2221121  -0.2175718   0.2504308   0.4057572
   0.1209860   0.1637965   0.0718274  -0.6075337  -0.8594618  -0.4388522
  -0.0247428  -0.3373677  -0.2307453  -0.0638136   0.0447737   0.0668772
   0.1455707   0.0010426   0.0737689   0.6676823  -0.1160742   0.1143219
   0.2862974  -0.0929034   0.1246022  -0.0484064  -0.1871265   0.1474097
  -0.1531191  -0.2943848  -0.5409128  -0.1061844  -0.3774838  -0.1725915
   0.3573563   0.0866592  -0.0728965  -0.2224671  -0.1007508  -0.1894996
   0.1936499  -0.1533901   0.0886561   0.3943752  -0.2442387  -0.5330753
  -0.7599754  -0.7555851   0.2361787  -0.0592403   0.2018146   0.0999701
   0.0162222   0.8315650  -0.0488154   0.0506464   0.0825155   0.0279178
   0.1635358   0.0515476  -0.0164559  -0.5951988  -0.4108782  -0.1360139
   0.4990530   0.0866257   0.8638195  -0.0721800   0.1589398  -0.1185395
  -0.9753257   0.7634767   0.1352105   0.1208343   0.1819726   0.6543880
  -0.0183902   0.2089216  -0.0284549  -0.5420754   0.2785736  -0.0612137
   0.1911406  -0.4619089  -0.0917150  -0.1590170   0.2308308  -0.1335435
  -0.1499521   0.6391816  -0.0008526   0.7533675  -0.3305474   0.2593230
  -0.0839860  -0.2413576  -0.1265866   0.7513957  -0.4512797   1.0174747
  -0.0366085   0.1910537  -0.6327488   0.1138066   0.0086091  -0.0770541
  -0.1942128  -0.4459444   0.7051715  -0.3919217   0.2286439  -0.4871401
   0.2501908  -0.0713332   0.1626755  -0.0044787   0.8670592   0.3388746
   0.1013888   0.0832289  -0.3449547   0.0441261   0.1483202  -0.3425055
   0.7851959   0.0109376  -0.6998574  -0.2588399   0.2241740   0.2267572
  -0.1045917   0.1796092  -0.1030334   0.2316574   0.4781678  -0.1128354
  -0.0483414   0.2242136  -0.1172261  -0.0259089  -0.0955591  -0.1158549
   0.2835162   0.7602992  -0.8627213  -0.1665011  -0.3456092   0.2817253
  -0.0603299  -0.2923560   0.0010789   0.4040021   0.2551912   1.0416847
  -1.4417726  -1.2179185   0.3743273  -0.2055504  -0.1270001  -0.1866755
   0.6016280  -0.3081959   0.3375223  -0.1305448  -0.1433172  -0.3035540
   0.2182504  -0.2502494  -0.1501078  -1.1990708   0.2264532   0.2166056
  -0.9406718  -0.9158817  -1.2188711  -0.0680475  -0.2432703   0.1711108
   0.4917004   0.2560403  -0.3354468   0.5186307  -0.6385378   0.0055467
  -0.0406420   0.0672684  -0.0224507  -0.2392539   1.0079700  -0.3449514
   0.4407964  -1.1589797  -0.0333099  -0.3155071  -0.0926862   0.0553441
  -0.1787376  -0.3692729   0.0171173  -0.4067100  -0.1443839   0.3828216
   0.1310838   0.0648388   0.0600552  -0.1264156   0.0755950   0.4226184
  -0.0189735   0.1244511   0.2998184  -0.0608865  -0.0045222  -0.0867790
   0.5578771   0.2592334   0.0272377   0.1440512  -0.8329450   0.3614659
  -0.1554374   0.0654938  -0.1267230  -0.2266907   1.2072752   0.2860510
   0.2676183  -0.6105602   0.8036080  -0.2848184   0.0485989  -0.0101914
   0.4318778  -0.7276668  -0.3646407  -0.7103791  -0.0524104   0.4017633
  -0.0805935   0.0218985  -0.0819727  -0.0283987   0.7820586   0.3838529
  -0.3725344  -0.2271163  -0.5682275   0.0660416   0.2412161  -0.2588616
  -0.4850642   0.0327461   1.1082356   0.9128312   0.0029990   0.8321544
   0.1734779  -0.0654706  -0.0651375   0.2501355   0.2434830  -0.5414875
   0.6288161  -0.1629641   0.1911565  -0.1149496   0.1603827   0.3456220
   0.7505215   0.1515778   0.3164862   1.1350394  -0.9103049  -0.1220471
   0.2156553  -0.2039129  -0.1756446   1.0903040   0.2660652   0.1868285
   1.0038290  -0.1537816  -0.1296387  -0.1054041   0.2578656   0.2319810
  -0.1361708   0.2825892   0.3867247  -0.4854868  -0.2827740   0.5401089
  -0.0365042   0.0839606  -0.3603199  -0.3471115   0.0447106   0.1891709
  -0.1957871   0.0778770  -0.2830036  -0.1177655  -0.0225794  -0.0101644
  -0.2205867  -0.0856739  -0.0499665   0.7457221   0.7856421  -0.6184950
  -0.1628991   0.1819046  -0.1518063   0.0891417   0.4442747   0.1921996
  -0.0242841   0.4731341   0.3951998   0.0124182   0.0011885   0.0984453
  -0.0517925   0.7074774   0.5957474   0.0229674   0.3667782  -0.1782669
  -0.0412381   0.1008180  -0.0630378   0.2898202  -0.0174756   0.4794613
  -0.0937804  -0.0866036  -0.0237741   0.1333253  -0.2424526  -0.0735702
  -0.4541151  -0.6334943   0.3426226   0.7142003   0.4732573   0.6284601
   0.3910497   0.0955215   0.2934540  -0.2098505  -0.9538883  -0.1055553
   0.4617711   0.5904935   0.7632418   0.1326689   0.0417657  -0.2105362
  -0.1465266  -0.2149273  -0.4802986  -0.0903968   0.1816640   0.0129460
  -0.2925023   0.3868227   0.1690855  -0.5114869  -0.1594869  -0.5098150
  -0.6431338   0.2838716   0.2244595  -0.1977399  -0.0732353  -0.0262738
   0.0707805  -0.4515531   0.4486991  -0.4333990   0.3334609   0.1146140
   0.3441064   0.0298912   0.0476740   0.6879369   0.0237801   0.4146265
  -0.2050469  -0.5584546   0.2220057   0.0937450  -0.1683418   0.4800401
   0.4894235   0.2189582   0.5522591  -0.1672835  -0.9491921   0.8957307
  -0.1315834  -0.0463593  -0.0087690  -0.1694357   0.1144718   0.4897710
   0.3116039  -0.3803542   0.8928328  -0.2164193  -0.3659410   0.0531665
   1.8994298  -1.1392500  -0.2451924   0.3478068  -0.2233740  -0.0102982
   0.0221584   0.0594242   0.0429790   0.3431952  -0.2413429  -0.0259240
   0.1576820  -0.1310913   0.7430956   0.0379854  -0.2534422  -0.0139721
   0.6472266  -0.7481024  -0.5000415   0.2634805  -0.4618676  -0.1934292
   0.3130069   0.0316548  -0.1654012   0.3384052  -0.2440726   0.2518295
   0.0030672   0.3359177   0.3125969   0.1226514  -0.0608895  -0.3805300
   0.1273848   0.4540475  -0.5321879   0.7080286   1.1071147   0.8704563
   0.2617947  -0.5893958   0.0592729  -0.0058827  -1.0074608   0.5616599
  -0.1329364  -0.9976357  -0.1313817  -0.0568030   0.3519908   0.0013051
   0.1190426   0.1259646  -0.1836549   0.5894328   0.9174788  -0.3453511
  -0.2656371  -0.0731701  -0.1034818   0.0602207  -0.9558756   0.4229381
  -0.0588844   0.1399277  -0.5440113   0.2494454   0.0251766  -0.1369398
   0.7483186   0.2628470  -0.0021205  -0.1037452   0.4889099  -0.2668612
  -0.2308646  -0.3327114  -0.1425852  -0.4527747   0.2992634  -0.2916377
  -0.1903185  -0.6485937  -0.2240470  -0.4367791  -0.4534369   0.2399294
  -1.0453593  -0.3066164  -0.0341862  -0.5838853  -0.4079183   1.0049806
   0.0713053   0.0288315   0.0210247   0.0651755   0.3587841   0.7435687
  -0.0450753   0.2499555  -0.0797768   0.0142598  -0.0051807   0.0687150
  -0.3065860   0.2624087  -0.2069828  -0.5755286   0.2730943   0.0919348
   0.0887668  -0.3029151   0.2142361   0.7023624  -0.2731571  -0.5172799
  -0.2853175  -0.2945190   0.5743114  -0.3571544  -0.1864088   0.2730013
   0.3095468  -0.9265142  -0.9898999  -0.1450542  -0.5838754  -0.6296599
  -0.2227797  -0.1080035   0.1253881   0.5061036   0.7162540  -0.4847209
  -0.4965592  -0.2935481  -0.2414080   0.1358578  -0.1934771   0.4651841
  -0.4694003  -0.8676186  -0.1941814   0.8683233  -0.6798325  -0.0640316
   0.3001818  -0.1456833   0.0173153   0.4597388   0.3093396  -0.3601853
   0.0655834   0.0827494   0.6431932  -0.1653008   0.1649054  -0.0600353
  -1.3526327   0.2890621   0.9344674   0.4359740  -0.1744254  -0.2653039
  -0.1359582  -0.2444262   0.1501909  -0.6381474  -0.7401803   0.2469744
  -0.5503849   0.0341365  -0.7709872  -0.1873969   0.0500839   0.1931867
   0.9358724  -0.8771743  -1.0596075  -1.1754783   0.6156385  -0.2713442
  -0.0648877   0.2954444  -0.0743201   0.7757901   0.7395074   1.1140811
   0.3868364  -0.8362562  -0.4537151   0.2401918   0.0265761   0.2749184
   1.1870886   0.0305917  -0.3658174  -0.1863200  -0.4067660  -0.7502756
  -0.0351097  -0.1030093   0.1635495   0.5233276  -0.6294303  -0.8194082
   0.0285951  -0.7397955  -0.0389787  -0.2571413  -0.0260217   0.1400622
   1.9618424   1.7413257   0.5450636  -0.8109040  -1.5465312  -0.7333457
   0.0186296  -0.2493733   0.1556921  -1.0988392  -1.0698982  -0.2073794
   0.6636918   0.0849431   1.0424871   0.2416711   0.0996235   0.0095998
   0.9090582  -0.2648299  -0.5230850   0.0738139   0.2449608   0.1756487
  -0.0046174  -0.1612284   0.1450744   1.6994096   1.0120432   0.8370701
  -0.2373381  -0.1086787   0.0248973  -0.0155130   0.3611135  -0.0186845
   1.3214450  -0.5816462  -1.1009336  -0.2514617   0.2264522   0.2732227
   0.1578358   0.1711126  -0.0453673   0.3136403   0.2670454   0.8984967
   0.4657255  -0.2540633   0.0416404   0.0450397  -0.2202297   0.2268531
   0.5411707   0.6481336   0.9151820  -0.0654047  -0.7628868  -0.2374186
   0.5101703  -0.0330678  -0.0890932  -0.7147781   0.1525042  -0.4684834
  -0.5989616   0.3266414  -0.3561959   0.0394770   0.3481453   0.1080238
   0.8266320  -0.3104020   0.6232140   0.0796986   0.2487370   0.4802165
   0.0508598  -0.0514994   0.0340010   0.0412442  -0.3041367   0.2261082
   0.0163643  -0.4775172  -1.1362037   0.0958118  -0.0698489   0.2889050
  -0.5568914   0.2806318   0.4375352   0.1226716  -0.0352022   0.0981277
  -0.2479806   0.2613804   0.3030723   0.4733690  -0.0745760   0.2029517
  -1.0150313   0.5028996   0.7253297  -0.1703228   0.1200054  -0.1100250
  -1.2927116   0.5860059   0.8143062   1.5634284  -0.6023423  -0.7155073
   0.0365345  -0.0201920  -0.2218160  -0.1196402  -0.2969299  -0.5964283
  -0.0601045  -0.1489540   0.1958878   0.0448385   0.1133964  -0.0392975
   0.0168243   0.7760928  -0.3739706   0.2540282  -0.3047766  -0.4817751
   0.0241156  -0.0469263   0.0475340   0.3334020  -0.6028534  -1.0200328
   0.4217988   0.7462172   0.0528640   0.1301194  -0.0471849  -0.0631261
   0.2910836   0.5720440   0.2591733   0.1725452  -0.7926306   1.2466620
   0.2008963  -0.2117817   0.1077117  -0.1444818   0.5427836   0.1768886
   0.1640891   0.1853087  -1.0746398  -0.1611332  -0.4623898   0.1184487
   0.0335548   0.3747828  -0.1204180   0.1132066  -0.9827162   0.4232083
  -0.0748544  -0.2733678   0.1945174  -0.4600112   0.1939203  -0.5940984
  -0.4323114   0.5758344   0.5620367  -0.1662024  -0.1479929  -0.0354567
  -0.3256960  -0.1013238  -0.3343804  -0.3921689   0.0310519   1.0954790
   0.2077712   0.0024883  -0.0725741   0.2882581   0.0262828  -1.0956306
  -0.0779291   1.5936373  -0.4269587  -0.3313593   0.5811401   0.1699145
  -0.3990141   0.6223593   0.1576440  -0.7041065   0.2655413   1.1436583
  -0.2142075   0.0772428   0.2317627   0.1458492  -0.2908362   0.4130125
  -0.8385585   0.6062914  -0.2533134   0.0382235  -0.0318103  -0.0767388
  -0.3352513   0.5356354   0.0030354  -0.9555504  -0.6130448  -0.6527826
   0.3423504  -0.5105229   0.2901839   0.5056255   0.2767603  -0.2652849
  -0.0226350  -0.3163467   0.9329457   0.0214344  -0.1204284   0.1083563
  -0.6320783  -0.3136969  -0.0542422  -0.0925885   0.4086002   0.5600345
  -0.1417187   0.2039202  -0.1356351  -0.7080230   0.2224049  -0.0504648
   1.2437253  -0.0836710  -0.0424265   0.2771017   0.2095596  -0.0639860
  -0.3329109  -0.8919917   0.9793016   0.2810800   0.4862499  -0.5413071
  -0.1817114  -0.3936397   0.0028563   1.3364752   0.4274109   0.8025661
   0.1272914  -1.9251754  -1.4341734   0.0408808  -0.1710242   0.0679398
  -0.2185775  -0.1832292   0.1661899   0.0218221   0.0023229  -0.1232448
   0.0162393  -0.1539586  -0.1204590   1.1366963  -0.0536221  -0.2781261
  -0.1736859  -0.3067037   0.3103129   0.2194055  -0.2992538   0.0451623
  -0.2432787  -0.3229321  -0.4393646   0.0484030  -0.3476461  -0.0344251
  -0.0145363  -0.1505396  -0.1904628   0.4573783  -0.1556493  -0.0071669
  -0.5847056  -0.0737824  -0.0679716  -0.1334610   0.1934635   0.1204239
  -0.5415318   0.3961310   0.3676289  -0.4738815  -0.4073555  -0.0830710
  -0.0600529  -0.0260986   0.0774420  -0.3117972  -0.2965562   0.2531637
  -0.1020091   0.2765198   0.4681037   0.0519637   0.0516533   0.1270015
   0.4328081   0.1801619   0.1807814  -0.1586579   0.3652167   0.1624916
   0.1146806  -0.1794900   0.1020962   0.0183586  -0.0943996   0.1177313
   0.0103746  -0.0523057   0.1452048   0.0333473   0.0757972   0.2910615
   0.7353342  -0.0760221   0.0933112   0.1488161  -0.1003654   0.3611235
  -0.0719769   0.2987598   0.1788307   0.7033126   0.0109120   0.4131060
   0.9784693   0.2392472   0.2364047  -0.0663124   0.0160591   0.1373592
  -0.2563567  -0.2811752  -0.0849830  -0.7609926   0.0757799   0.6093813
  -0.0376358  -0.0681096  -0.3177127   0.5590172  -0.3440982  -0.1695365
  -0.5131177  -0.4985752  -0.2695790  -0.2850480  -0.0295207   0.0660538
  -0.0890733   0.7357205   0.1393098  -0.0270191  -0.1191009   0.5940942
   0.1147881   0.2922880   0.0650835  -0.1475972   0.2190004  -0.1081015
   0.8464639   0.4604980  -0.6294447   0.2915452  -0.1501821  -0.2974273
   1.1773243  -0.1242608  -0.7281319   0.2544517   0.1578163  -0.5407698
  -0.1721731   0.0045064  -0.1915993  -0.1552426  -0.0005924   0.0087221
  -0.0736981   0.1147322  -0.3641711  -0.1181461   0.1174159  -0.0462196
  -0.5879739  -0.4139339  -0.7882677   0.7241138  -0.7801640   0.1777819
   0.2953250   0.2789339   0.3002692   0.4392994  -0.4854098   1.3310476
  -1.5388810  -0.5615606   0.0602800  -0.2447945   0.3871562   0.0021393
  -0.8283531   0.7137228   0.0349689   0.3939872  -0.2384436  -0.5865687
   0.0883808   0.0180671  -0.3355436  -0.0182387  -1.0392149  -0.6036177
   0.2349703   0.4979544  -0.2721063   0.2045102  -0.2176798  -0.4697119
   0.3106220   0.4643112  -0.7512108  -0.1558583  -0.1194424   0.5257709
   0.3450978   0.1015027   0.0528641  -0.6875284  -0.1542888   0.7229430
   1.3621908  -0.2086363  -0.9450836  -0.0792652  -0.0479570  -0.3028435
  -0.5985344   0.0947544   0.0510551   0.1761867   0.2968595  -0.7755183
   0.1447299  -0.0104586   0.2857300   0.5962431   0.2454600  -0.3248480
   0.2418568  -0.4354027  -0.4713005  -0.0119310  -0.0111554   0.2717154
  -0.6454277   0.3776329   0.3481068   0.4438970   0.1161308   0.7839827
   0.0061933  -0.1806019  -0.0170375   0.4439586  -0.2534821   0.5124739
  -0.4532664  -0.3457314   0.2818261  -0.2533075   0.0479616   0.4050087
  -0.3527178   0.2207590   0.9316651  -0.3943702  -0.2734329   0.2243892
  -0.0831861   0.0982190  -0.3113683   0.6234511  -0.3713824  -0.0026257
   0.2737667   0.0430379  -0.2521798  -0.0030510   0.2879008  -0.1025347
   0.5910592   0.8520817   0.1607156  -0.6495851   1.0631359   0.5536160
  -0.2189069  -0.1806976   0.0125472   0.2069134  -0.4433954   0.4649584
   0.0080626  -0.2221002  -0.3821513  -0.0041654  -0.2484644  -0.1083107
  -0.2081218  -0.4830607   0.1218389   0.2047660   0.3111209   0.2685109
  -0.1629616   0.3210324  -0.0214843   0.4877140  -0.5327932   0.0524376
  -0.0076909  -0.4684107   0.1814978   0.4521798  -0.4109761  -0.1401418
  -0.3790833  -0.0679410  -0.6820098  -0.6785908  -0.0438193   0.8645862
   0.0740225   0.0864656  -0.0271008   1.1982292  -0.8449889  -0.4274698
  -0.0681957  -0.1770743   0.8353394   0.2275370   0.2914355   0.0479285
   0.4759604   0.4414904  -0.1160372  -0.1208823   0.5060324   0.1096248
  -0.2584473  -0.1053101   0.0857748  -0.4671883   0.2494448   0.1087362
  -0.0570134  -0.0794058  -0.2685478  -0.2699631   0.0048850  -0.0970077
  -0.8682187   0.6709122   0.3559254  -0.1258227  -0.6434164   0.5917946
   0.1258620  -0.2825228  -0.0327368  -0.2302506  -0.2123919  -0.2239733
   0.0981601  -0.3876407   0.1843240   0.0990670  -0.0869515  -0.0281712
   0.7103852   0.1765736  -0.1686981  -0.4228594  -0.4391749   0.2644784
   0.1108325   0.1820001  -0.2990672  -0.0303729   0.2248949  -1.3256506
  -0.7756210   0.5539571   0.0891315  -0.1771439  -0.0663333  -0.0634599
  -0.0498789   0.0264920   0.0872128   0.3878833   0.2795074   0.4972028
   0.4107997   0.0525063  -0.5700317   0.6017945   0.6404950   0.1849105
   0.7383548   0.6847986   0.6384490  -0.1282841  -0.2933342  -0.0902676
  -0.3083208   1.3853354  -0.0125970  -0.1625677  -0.3132040   0.1429290
  -0.1139487   0.1838600   0.0436171  -0.3003849  -0.0766204   0.0525221
  -0.3141860  -0.1484459  -0.1947815  -0.1815586   0.0140033   0.0790757
  -0.6374881  -1.3510057  -0.3587807  -0.0590289   1.0269445  -0.4319585
   0.2094771  -0.1547454  -0.2006157  -0.2086212  -1.6384511  -0.8624398
   0.2885664   0.0317894   0.0423007  -0.1630333   0.2018642   0.0583107
  -0.6921255   0.3138779   0.2413382  -0.8465282  -0.1199017   0.4672012
   0.0330423   0.1747826   0.1933119  -0.6828763  -0.8691341   0.8186801
   0.5816568  -0.5682565  -0.7946708   0.1165573  -0.4296778   0.2038251
   0.2202464  -0.3026573  -0.0136290  -0.0153993  -0.2405064   0.3878503
  -0.3444488  -0.2102480   0.0760460  -0.1358435   0.5652461   1.0512267
  -0.5020193  -0.4292557   0.3710732  -0.0255799  -0.0849810   0.1521892
  -0.7121544  -0.0855651   0.7662484   0.0837602   0.5899785   0.7003429
   0.1965140   0.3469612   0.0375909  -0.0504375  -0.1363310  -0.1677416
   0.1764638   0.3002500   0.7446756   0.0997195   0.2061205  -0.0849910
  -0.0166709  -0.2325593  -1.6919473  -1.5311696   0.2564656   0.6648701
  -0.1403678  -0.3678394   0.0994005  -0.2393112  -0.5773954   0.6798267
  -0.0140393  -0.0037832   0.3576417   0.0957218   0.0220192  -0.1938646
  -0.2199172   0.9182935  -0.7152962  -0.9079580  -1.0095007  -0.5109290
  -0.1424082   0.1890923  -0.0047929  -0.3405699   0.2358004   0.0246530
   0.0194335   0.1261353   0.0747541  -0.2479489  -0.1393004  -0.0118441
  -0.1685874  -0.4740753   0.1702233  -0.5311801  -0.0676461  -0.0375897
   0.0349485   0.1141353   0.1410871   0.1682402  -0.7728161  -0.2085770
   0.1333734  -0.4136036  -0.0745103   0.0405338  -0.1194858   0.1895590
  -0.3895141  -0.1518368   0.4154268  -0.3441028  -0.0838174   0.5913267
   0.2106262  -0.0046336   0.0208761   0.2481408   0.0163592   0.0607466
  -0.0136522   0.5114410   0.2150531   0.3244293   0.1745376  -0.3067540
   0.2450837  -0.4952418  -0.3086593   0.7330988   0.2250468  -0.7629078
   0.0475882  -0.0195061   0.0656025   0.6343135  -0.0561012   0.5247176
  -1.0500916   0.5444280   0.0629226  -0.0285549  -0.0891762   0.0643204
  -1.0690336   0.8435406   0.8539069  -0.5374055   0.6837587   0.2430369
   0.2197901   0.0286377   0.0904163   0.2087169  -0.2158801   0.1570827
   0.4251846  -0.5718236   0.1836634   0.4528626   0.0841531   0.1559567
   0.5120075   0.1131143   0.2184095  -1.3279892   0.1003814  -0.0061549
  -0.0414136  -0.4862960  -0.3550036   1.4179172  -0.2489288  -0.2190286
  -0.9867080   0.0620289  -0.2373540   0.0842488  -0.0649660  -0.1073715
   1.0582367  -0.6414294  -0.6993376  -0.6798642  -0.4619139   0.1992750
   0.0565228   0.1005707  -0.0465933  -0.3776702   0.5438508  -0.2171427
   0.0219768  -0.1523454   0.7407510   0.2627492   0.2056141  -0.2841817
   0.2617281   0.1888325  -0.2745115   0.0715796   0.0390562  -0.2030777
   0.3311251   0.1111580   0.1330625   0.5524734   0.0736949  -0.0446317
   0.7979011  -0.3896113  -0.0417704   0.0007280  -0.0072263  -0.0277831
   0.1296340   0.5406369   0.6097211   0.1875556   0.8885556  -0.1794457
  -0.0339514   0.1077142   0.1060853   0.1275550  -0.3902009  -0.1117785
   0.4234988   0.4288832   0.1113227  -0.1819637  -0.5055661  -0.1143346
  -0.3678209  -0.0695324  -0.3840996  -0.1024050  -1.0794435  -0.4022783
   0.0287017   0.0110241   0.0511618  -0.7277503   0.2102145  -0.4415699
   0.1049198   1.4142733  -0.8934807   0.1787494  -0.3161118  -0.0367810
  -0.1032534  -0.9317952   0.1203691  -0.2150023  -0.6367520  -0.3373550
  -0.0884337  -0.0527674   0.1285007   1.3383725   0.1670033  -0.2789556
  -1.2684385  -0.1943557   0.4853473  -0.0476449   0.0700838  -0.0712831
   0.1321834  -0.0460533   0.8317486   0.3577418  -0.6539062  -0.2471973
   0.0880772   0.0775720  -0.2016228   0.1150872   0.4638995   0.7677140
  -0.8540832   0.2647230  -0.3875071  -0.2476520   0.1970885   0.2709608
  -0.1572169   0.5339986   0.2903474  -0.0361636  -0.1185175   1.2967845
  -0.1590345  -0.0580883   0.1227041   0.3774674   0.3809698  -0.1194167
   0.3213435   0.3817156   0.1182022   0.1384250   0.0796334   0.1411480
   1.0930298   0.1067643   0.2088655  -0.6452736  -0.2905180   0.4912104
   0.0518287  -0.1954631   0.2074684   0.7486885  -0.6219534  -0.0966749
  -0.6090503  -0.8882677   1.2866112   0.1419277   0.1019050   0.1908334
  -0.3208099   0.0828076  -0.2631199  -0.3336531   0.7129542  -0.2347169
  -0.2108105   0.0198425  -0.0120710  -0.3980641  -0.2927989  -0.1452436
  -0.1707320   0.8216619   0.6815222  -0.1003838  -0.3253817   0.1513459
  -0.6567342  -0.7729625   0.5063750  -0.1934625  -0.0953720  -0.4020896
   0.0364470  -0.1191255   0.0880284   0.1329403  -0.3209820   0.1207564
   0.2408245  -0.5432890   0.4337871   0.5696150   0.1204493  -0.1445535
   0.4933293   1.1868234  -1.0554698   0.2319944   0.1880390   0.6386352
   0.1631026  -0.0033031   0.0474945   0.1983078   0.0609729   0.0704000
  -0.2802133  -0.1438320  -0.2335491   0.0700841  -0.2874153  -0.1267353
   0.3634453  -0.4356241  -0.0138733  -0.0842183  -0.2486861  -0.6908058
   0.2252231  -0.2060991   0.1687194   0.2027711  -0.3004620   0.3491716
   0.0636940  -0.3126307   0.0923265  -0.1170240  -0.2225759  -0.3574685
   0.2182415   0.0162392  -0.0624602  -0.3380548  -0.2240494  -0.1188332
  -0.0913162   0.2719727  -0.1986923  -0.7195783   0.9250133  -0.4664966
   0.3764009   0.0176044  -0.6028147  -0.2263203   0.1022967  -0.1527636
  -0.2249810  -0.0104351  -0.3386801   0.6812056   0.4698590  -1.2509595
   0.1296661  -0.1573611  -0.2769648  -0.3805543  -0.3710365  -0.4113474
  -0.0026001  -0.1321582  -0.4313946  -0.1813565   0.2358590   0.1647274
  -0.1186792  -0.0855422   0.5147043  -0.1272624  -0.1183616  -0.2933376
   0.0235580   0.1263603   0.0932869   0.0144080   0.2674795   0.2186461
   0.1391871  -0.1960284  -0.2030796   0.1914918   0.2019740   0.0119738
   0.6755391   0.8078927   0.7520485  -1.0127283   0.0535966  -0.7037132
  -0.0989814  -0.1323270   0.1361625  -0.5465840  -0.9872194   0.3020953
   0.0561097   0.8070614  -0.1136060  -0.4917138  -0.0220451   0.1704617
  -0.7608393  -0.1753572   1.0057260  -0.8304471  -0.4198742  -0.1874849
  -0.1252796   0.3040430  -0.2299620  -0.3084105   0.0181047  -0.0077945
   0.2528676   0.0413808   1.0073937  -0.1090474   0.1179568  -0.0643606
  -0.6035760   0.0966203  -0.0261985   0.1729415   0.1221457   0.0424182
  -0.2440585   0.0286928   0.2420698  -0.0552788   0.0959386   0.2570394
   0.5840378   0.2536965  -0.3130220  -0.4389998   0.1204642   0.0272960
  -0.0631961  -0.5226542  -0.0016158  -0.4951081   0.4544179  -0.5688564
  -0.4394087  -0.2949170  -0.1827054  -1.8917340  -0.9115393   0.0581616
   0.2694982   0.5328596  -0.6886517  -0.1108105   0.4205533   0.1035439
  -0.3145052   0.1366289   1.8250119   0.2784284   0.9049071  -1.7636129
  -0.0689475   0.0466051  -0.0909325  -0.1406741  -0.2148088  -0.5649271
  -0.3219320   0.0938212  -0.1010565  -0.0608703   0.2360658  -0.2543638
  -0.0780449   0.4732303   0.0313210  -0.0151983   0.0491038  -0.5091128
   0.0882032   0.1200814   0.2993358   0.4037426   0.3708855   0.6484285
  -0.2059026  -0.3443146   0.4760127  -0.3354738   0.3895479  -0.0410287
  -1.1679069   0.0685679   0.6151429   0.1168985   0.5495279  -0.4839989
   0.1597911   0.1410011   0.0617315   0.1741724   0.2485790  -0.1690198
   0.5924013  -0.5034066   0.8351720  -0.3019813   0.0496035   0.0332858
   0.6709800   0.1072514  -0.3425912  -0.6002760  -0.3118676   0.2995268
  -0.1486402  -0.2120772   0.0208017  -0.1528281  -1.3777239   0.1432592
   0.0888781  -0.4180951  -0.3418101  -0.0920536   0.0360621   0.2423419
   0.4434157   0.7570196  -0.5130042   0.1968795   0.1286914   0.6250818
  -0.1167830  -0.0521321  -0.0081207   0.4303568   0.3574674  -1.1039962
  -0.3573496  -0.5277976   0.5432625   0.3612647   0.1313672  -0.0269168
  -0.0317273   0.1625396  -0.5881898   0.4435836   0.1547560   0.1000912
   0.4111671   0.3447317  -0.1025907  -0.7394724   0.1049276  -0.1257237
   0.6528671   0.8715567  -1.2104655   0.1488798   0.0724735  -0.0747568
  -0.3421603   0.5847825  -0.4152215   0.6023915   0.1607988   0.1115012
  -0.0606634   0.3124928  -0.0533333  -0.6603605  -0.2453681  -1.1878789
  -0.2318084   0.1818013  -0.3795804   0.0124240  -0.2020184   0.1735668
  -0.3172599   0.8065986   0.0221529  -0.2127828   1.3799611   0.3030317
   0.2684912   0.3319237  -0.1303965   0.8736705  -0.5162412   0.5473158
   0.5880811  -0.1118700  -1.1217422   0.0128320   0.1935350  -0.2582698
   0.6851543  -0.3071263   0.2020800  -0.3923993   0.4018265   0.2493971
  -0.2028202   0.0407245  -0.4708922  -0.5059358   0.2000210  -0.2206161
  -1.1178925  -1.4195323  -0.8358093   0.1758592   0.0648764  -0.2411228
   0.2387170   0.0227523   0.8779935   1.2766912   0.5263648  -0.6582817
  -0.1062794  -0.0350189  -0.2828683  -0.6561752   0.3660179  -0.7148928
   0.6329759   0.1512084  -0.5084881   0.0008135  -0.3526952  -0.0770100
   0.7144581   0.0771477  -0.6420241  -0.4492146  -0.5518904   0.3263507
   0.0759675   0.1741544  -0.1299973  -0.4242475  -0.5585506  -0.7130505
   0.7915149  -1.4058454   0.0089049   0.1948997   0.0354694   0.0430332
   1.5648177   0.4487454   0.7121779   0.6632500   0.2658601   0.1908933
   0.0679822   0.0694420  -0.0839023   0.0319228  -0.1665964  -0.7775621
   2.1102188   0.1191137   0.2699273  -0.0688789   0.0731592   0.0440571
  -0.1738378  -0.0375663  -0.6601626  -0.2479504   0.4527853   0.5942492
  -0.0395033  -0.0125500   0.2375367   0.3446984  -0.1265319  -0.3130922
  -0.8026880   0.4649643  -0.4196160   0.0778132   0.1750311  -0.2386138
   0.0712580   0.1344699  -0.3301368   0.0544370   0.0687896  -0.1190649
   0.0331677  -0.4174268  -0.0912318  -0.1317984  -0.3149326  -0.4392413
  -0.1788689  -0.2376289  -0.7250805  -0.0046979   0.1164508  -0.1281311
   1.0866936   0.2551258  -0.5490709  -1.3069971  -0.1564691   0.7262979
   0.2571147  -0.1144173   0.3431207  -0.0824456   0.6211701  -0.4581005
   0.7827865   0.3682518   0.5419660   0.1336402   0.1172813   0.3912473
   1.4392872   1.4009964   0.9468802  -0.7118363  -0.2294101  -0.3061587
  -0.1137220  -0.1969749  -0.0802246   0.0919877  -0.3687850   0.0740485
  -0.3507100  -0.1506654   0.1613379  -0.1741949  -0.1324080  -0.0289324
  -0.8379894   0.2481831   0.6603010   0.3494828  -0.4238238  -0.5459954
   0.0073579  -0.0567832  -0.0926920  -0.2208365  -0.0888144   0.5556051
   0.0959734   0.5954919  -0.1426332  -0.1915916  -0.1801943  -0.0409074
   0.0701026  -1.2502940  -0.1865729  -0.0844025   0.5030781  -0.0616998
   0.2643063   0.0408978  -0.2233028   0.2178403  -0.1027140   1.0991397
  -1.1796700  -1.1531182  -0.3501109  -0.0629955   0.2759315  -0.2189876
   0.0537411   0.4902185   0.3518528  -0.4196327   1.0875553   0.6622515
   0.2732976  -0.1104836   0.0169429   0.8076413  -0.3685065   0.0591493
  -1.3054945   0.3800482  -0.0813412  -0.2390083   0.2864690   0.0942376
  -1.1485758   0.4260363  -0.5626623  -1.4674963  -0.3254553   0.6588120
  -0.2060525   0.1735593  -0.0870654  -0.6272957  -0.0313994  -1.0754429
   0.5539978   0.4491958  -0.3323056   0.3784939  -0.1249911  -0.1955515
  -0.9932563   0.0656728   0.0723640   0.2150005  -0.1770839  -0.2761054
   0.2976577  -0.0867196  -0.1114122   0.0708039  -0.0059862  -0.3620509
   0.6123082   0.5816386   0.0856394  -0.1832208   0.0296199   0.3492413
   0.3793743  -0.8143300   0.0465686  -0.2250662  -0.8693604  -0.3965356
   0.1324818  -0.1878123   0.1209705  -0.3188932  -0.0568985  -1.0674424
  -0.1137934  -1.1173864   0.4094386  -0.1306215   0.0475305  -0.0269196
  -1.2819865  -0.3599036  -0.2271392   0.2649853   0.0280671   0.2636341
   0.1123305  -0.1101732   0.3545540   0.1847369  -0.0603967   0.1954725
  -0.2099094  -0.0374669   0.2366976  -0.0912790   0.0960842  -0.1828514
  -0.0656705  -0.2997531  -0.3637044  -0.0987154   0.4130443  -0.0563624
   0.0602714   0.0881711  -0.0930574  -0.8197613   0.0324134   0.1584568
   0.2802038  -0.7760089  -0.2504852  -0.2411517  -0.0019934   0.2098571
  -0.4744815  -0.0570861   0.0561428  -0.8669912   0.8185229   0.3513657
   0.2303743   0.2328528   0.0765883   0.1897253   0.2473918   0.2205066
  -0.0159197  -0.8594963   0.1681156  -0.1181589   0.0254067   0.2856466
   0.2354271   0.0908308   1.1585594   0.9372342  -0.3608027   1.1938082
   0.1847607  -0.0167163   0.0107298  -0.6322416  -0.0115925  -0.8784967
   0.7930682  -0.1072650  -0.2065787   0.1989876  -0.2797400   0.3727386
  -0.2731006   0.2402533   0.3166884  -0.7688290  -0.0174858  -0.5457505
  -0.2460386   0.0368805  -0.2287011   0.8258958   0.3119082   0.2035844
  -0.0590503   0.3798361   0.0260472  -0.1176265  -0.2078110   0.2407633
   0.7224418  -0.0166260   0.2951943  -0.1912870  -0.7652507  -0.3327555
   0.0016472  -0.2307932   0.0365564   0.0581091  -0.5815693   0.3003223
   0.1962900  -0.3538110   0.2055503  -0.4938831   0.2173897  -0.0658387
  -0.5731598   0.1620420  -0.2606628  -0.4699595   0.4990240  -0.1277578
  -0.0019738   0.1758644  -0.3617039  -0.1728013   0.0071463  -0.5627501
   0.1863811  -0.3100048  -0.9486595   0.2870993   0.1884151  -0.0687288
  -0.4049762   0.3009797   0.2093648   0.2908403   0.1097168  -0.6812062
   0.0125695  -0.0201176  -0.0620693   0.4786286  -0.3496197  -1.0797772
   0.6611460  -0.2003123   0.7462342   0.2306418   0.0600548   0.0957186
  -0.0197652   0.4298238  -0.3579632   0.4748750   0.7699704  -0.3449560
  -0.0053598   0.2674522  -0.0549504   0.2307873  -0.5914196  -0.5228159
   1.0015908   0.9779307  -0.1365328   0.3564868  -0.2347124  -0.3145072
  -0.0870690  -0.4429479   0.0527957  -0.0999105  -0.4047225  -0.0473786
   0.3663195   0.2448886  -0.0136033   0.7524627  -0.0252795   0.2067245
   0.0946513   0.4690416   0.3315270   0.1577939  -0.0684924   0.0077008
  -1.9333428  -0.0474189   0.5033166  -0.0757315   0.1446135   0.0060559
   0.0140969  -0.3514681  -0.0385570  -0.6583862   0.1429346  -1.1684326
  -0.4436633   0.9174366  -0.0930576   0.3247181  -0.1859282  -0.0600361
   0.1241815  -0.8179435   0.1849922   0.3958432   0.0454725  -0.1594714
  -0.2720980  -0.1131570  -0.1928097  -0.5347362  -0.7593738  -0.1251595
   0.0681981   1.6524915  -0.9315730   0.3573738   0.1599178  -0.1466747
   0.1787668   0.9210207   0.2512109   0.4372476   0.3954730   0.4064897
  -0.3686666   0.0827948  -0.0815865   0.1330401  -0.4274339  -0.1761139
  -1.2022613   0.9804003   0.0472478  -0.4014337   0.0218936   0.1324722
  -1.4294748  -0.0655835   0.7587035  -0.4625571  -0.4468103   0.4394944
   0.3384588   0.0246560  -0.1278836   0.3758749  -0.1768653  -0.7821489
   0.3452792  -0.1647435   0.3386329   0.0423305   0.0735399   0.0700608
  -0.2955978   0.2305214  -0.4981298   0.2514454  -0.8132714   0.1286263
  -0.0707932   0.0725554   0.2876713  -0.1872692  -0.2081356   0.4060365
  -0.1014031  -0.6534509   0.6328179  -0.2488602   0.2327026  -0.1076469
   0.1068959   0.0110305  -0.0765715  -0.3041439   0.2100933  -0.1209352
  -0.2421581   0.0603166   0.1512571  -0.3232138   0.1046145  -0.2981558
  -0.3106184   0.0227930  -0.1658858   0.2397437  -0.0379787   0.0933697
   0.4886984   0.6118746   0.2068278   0.1069518   0.0717380   0.8595801
   0.2449720   0.2478909  -0.1152149  -0.2861322   1.0230119   0.5798524
  -0.4845142  -0.2981851   0.1249106  -0.0428718   0.3783398  -0.2471032
  -0.5556463   0.0643834   1.5908863  -0.6419177   0.0522922   1.7458308
  -0.2715145  -0.0195520   0.0745832   0.1010378  -0.7060758   0.9021885
   0.7676861  -1.4284315   0.2611036  -0.1716871   0.3268826   0.1452866
  -0.1750623   0.7662254  -0.5284860  -0.3192489   0.3781939   0.9324198
   0.1450823  -0.0508666  -0.2268997  -0.9578041  -1.4288370  -0.1917637
   0.2465868   1.1189191  -0.3278885   0.0775643   0.0369388   0.4008857
   0.2062618   0.4241244   0.6353434   0.0226879   0.4498122   0.1218104
   0.2002338  -0.0149698   0.0963122   0.1376734  -0.3269410   0.9148573
  -0.9177054   0.0790372  -0.7302978   0.0152606   0.1616372   0.0096364
   0.1488631  -0.5145773   0.7865335  -1.4460137   0.1190609   0.2750977
   0.2520225  -0.2907374  -0.1310149   0.3312472  -0.0718435   0.1708247
   0.1768805   0.8959937  -0.3967953  -0.0256038  -0.2929507  -0.0204685
  -0.1932205  -0.9020449  -0.9023427  -0.4632463   0.4609859  -0.3349450
  -0.2930360   0.1826195   0.2262366  -0.1821952  -0.3189402  -0.7834535
  -0.1375798  -0.2833859  -0.5169946   0.0202586  -0.2133449   0.1446639
  -0.1453423  -0.4400978  -0.1006354  -0.1107891  -0.4871280   0.4544276
  -0.1904910  -0.0513166  -0.1010924  -1.1818674  -0.9007523   0.5495783
  -0.0268616   0.4511815  -0.0836756   0.0399468   0.0499048   0.1557685
  -0.0450647  -0.1446947   0.0840903   0.1085954   1.3644412   0.3067839
   0.0305382   0.0221228   0.2206020   0.4601388  -0.0456967  -0.0077120
  -0.9110459  -0.6384074  -0.7341027  -0.1162139  -0.1382306   0.2701004
   0.0667887   0.1722209   0.6961051  -0.0456403   0.1351690  -0.2377910
  -0.0615659   0.0694691   0.2663747   0.5996609  -0.0811543   0.4073595
  -0.4173452   0.3230355   0.5761230  -0.1538015   0.0666717   0.0222308
   0.0866763  -0.6666049   0.0511927   0.0101291   0.2938969  -0.6849917
   0.2566938   0.0025185   0.0384271   0.0151811   0.3955836   0.2070248
   0.4257179   0.0145792  -0.0213509  -0.0896360   0.1039940   0.0326527
  -0.1152043  -0.1136828   0.8383730  -0.1062724   0.2376536  -0.2981692
   0.0085055  -0.1127614   0.1045336   0.2829419   0.0376637   0.1479645
  -0.0226304  -0.3230532  -0.0434541  -0.0846583   0.2584330  -0.1996696
  -2.0878222  -0.3137117   0.7349449   0.0631100   0.1891721  -0.3609369
  -0.1291819  -0.1485889   0.0654717  -0.0759753  -0.1538233  -0.1840288
  -0.0991717  -0.0317107   0.5544539  -0.1726818   0.2409649  -0.0217641
   0.1298982   0.1239669  -1.0045454   0.6108032  -0.2557116  -0.8313615
   0.0394421  -0.0618649   0.1823624   0.4346795   0.2786363   0.2200666
   0.8318592  -0.4418013   0.4379740  -0.5048514   0.1248727   0.2612543
  -0.6235127  -0.0356827   0.1082965  -0.4700099   0.2128362  -0.6806648
   0.0419546   0.1770531  -0.4280332   0.4379405   0.5424150  -0.5683823
   0.2922734   0.0683276  -0.4731819   0.0414519   0.1748051   0.3928245
   0.2919268  -0.1879733   1.1054050  -0.0462770   0.2939021   0.1723944
   0.1963691  -0.0423339  -0.2928478   1.3243122   0.5387809   0.7289649
  -0.5886342  -0.7057807   0.4825878   0.2931418   0.2625607   0.0224557
   0.1105478  -0.1063557  -0.5274158  -0.0971319   0.1314928   0.2197015
   0.2905184  -0.1875086  -0.0058715   0.9132814  -0.6653956   0.4983144
   0.3286257  -0.3559438  -0.2215864  -0.1138361  -0.1311963   0.0889474
   0.1408701  -0.2236104  -0.5813757  -0.1245122  -0.2275060   0.7442680
   0.1156400  -0.0860330  -0.0280324   0.3191155  -0.2081640   0.6180710
  -0.6570274  -0.1151676   0.3956478   0.1383544   0.0766162   0.0724217
  -0.0426192  -0.0990623   0.4450621  -0.7323258   0.5944245  -0.6957192
   0.0078511   0.0876477   0.1021574  -0.1407409  -0.6587466   0.1972960
   0.2073153   0.2519939   0.2944921   0.3457213  -0.0303512   0.0266444
   0.1174456   0.7981185   0.0235468   0.6239775  -0.7222348  -0.2874683
  -0.2652101  -0.1253407  -0.0613009  -0.0020429  -0.5879094  -0.0345034
  -0.4005951  -0.0455447   0.4097952  -0.0342665  -0.1417721   0.0431043
   0.0248044  -0.2761337   0.0132821  -0.1199063  -0.1322690  -0.2811624
   0.0209375   0.1521198  -0.0389058   0.0748282   0.3014929   0.7063882
   0.4942637   0.1161431   0.0563421   0.0291472   0.0350045   0.1353349
   0.2728489   0.4793072   1.1236461  -0.2695159  -1.3600187  -0.0108185
  -0.1064313   0.0514934  -0.0521884   0.0718086   0.0384640   0.3606642
  -0.1845786   0.1155792  -0.4267967  -0.1631443  -0.0344223  -0.2089283
  -0.1338499   1.1763098   0.5688630  -0.5576086  -0.4883141   0.0593119
  -0.2010971  -0.0785527  -0.1593993  -0.7032643   0.4053555  -0.0833681
   0.2971063  -0.3059964  -0.3884472  -0.0826864   0.0076487   0.1097719
   0.4462230  -0.1397482   0.1638760   0.0740239   0.0952759   0.0291818
   0.0542730  -0.1431751  -0.0310989   0.2025597  -0.0872003   0.5599584
  -0.3508473   1.1663875  -0.1002685  -0.1585321  -0.0670868   0.0021377
   0.2509702   0.3596120  -1.3014557   0.1315657   0.9817629  -0.5464247
  -0.2522456   0.0469129  -0.1966926   0.5529044   0.0674400   0.9411388
   0.0974698   0.0219469   0.6766303  -0.0184188   0.0538786  -0.0519527
   0.4249463  -0.2349810   0.4839085  -0.3180264   0.0567842  -0.2501938
   0.1303971  -0.3306124   0.0888684  -0.4285880  -0.7519957  -0.4726130
  -0.0798995   0.1922472  -0.6333657   0.1433202   0.2084870   0.1808584
  -0.6540824  -0.5776835   0.3796683   0.5272069   0.6806168  -0.0184009
  -0.0966927   0.0472175   0.0631562   0.1158840  -0.0518666   0.7076229
  -0.5715586  -0.2428534   0.0470762   0.2207004   0.3312082  -0.2177071
  -0.9063796  -1.1397872  -0.8190114  -0.3944596   1.5405399   1.8670061
  -0.0617606  -0.0159693   0.0312379  -0.1395619  -0.7374208   0.3686899
  -1.2126380  -0.9970336  -1.1193755  -0.0210420  -0.0990268   0.1564413
   0.3043105  -0.5941437   0.4085391  -0.8672195  -0.8486838  -0.7543500
  -0.1766088  -0.2465047  -0.4682279   0.2262465  -0.1552461   0.4459875
  -1.7305535   0.5508244  -0.3067167  -0.3982334  -0.0322076   0.3839914
  -0.4258243  -0.0111894   0.4421366  -0.1300689   0.0103104   0.5047617
  -0.0719702   0.2169762  -0.1480206   0.0712174  -0.2848166   0.0666024
  -0.6711470  -0.0891681  -0.4262751  -0.1867717  -0.1960195   0.1122675
   0.0251646  -0.1871930   0.1613653  -0.0157016  -0.0611116   0.1147279
  -0.0382807  -0.0463294   0.0610751  -0.1021507   0.8599763   0.5182468
  -0.7764851   0.1846418  -0.7454655   0.2928657   0.0137367  -0.1256505
   0.2043398   0.0307712   0.3749514  -0.9227273  -0.3967715   1.0130682
  -0.2658344   0.0919027   0.1288769   0.1210424   0.6313916  -0.1342713
  -0.5555910   0.3612774   1.0013278   0.0596419   0.4392953   0.2119811
  -0.3319398   0.3707053   0.3832591   0.3116266   0.3303819   0.4244698
  -0.0839723  -0.2304660   0.2231027   0.5492274  -0.2230689   0.2168720
  -0.2848911  -0.7510337   0.2808200   0.0041629   0.0494439  -0.3723136
   0.4844732   0.2465603  -0.1144084   0.1851757  -0.4684381  -0.6063679
   0.0254454  -0.3089529  -0.2841357  -0.2644358   0.4875821  -0.1339178
  -0.1825630  -0.5794852  -0.0301385   0.1115938  -0.3946503  -0.0888683
   0.3305248  -0.6062847   0.0437865  -0.0270573   0.0207249  -0.0066012
  -0.1130515  -0.1146779   0.2184823   0.5022905  -0.2067356   0.7563246
  -0.3379610   0.0980940   0.0162460  -0.1755553   0.0735642  -0.0458501
  -0.0892763   0.0484516   0.3356068   0.0384510   0.3725129  -0.1553396
   0.0327264   0.1574729  -0.3078390  -0.8334158   0.2167257  -0.5315533
   0.2854738   0.8816510   0.6605637  -0.1017812   0.1807992  -0.2168665
   0.2469102   0.7160380   0.3912947   0.2602172  -0.0562666   0.5178497
   0.0336268  -0.2098056   0.3392341  -0.1170629  -0.0973304   0.8486351
  -0.1567255  -0.0209935  -0.2348270   0.1026175  -0.3717184   0.1864976
  -0.2650930  -0.0500577   0.7673081   0.1289268   0.6316009   0.2552082
   0.0891002  -0.1744144  -0.0136046  -0.1798580   0.1919999   0.0042654
   0.5335232  -0.3088196  -0.1710560   0.0213024  -0.0099997  -0.1154683
   0.2843992  -0.0730873  -0.1330559   0.5878971  -0.2111371  -0.0633101
   0.1525568   0.0832450  -0.2369314   0.4988036   0.5487570  -0.7617275
   0.3888919   0.7405095   0.2266717  -0.3849389   0.0922577  -0.1890057
  -0.4172044   0.1494359  -0.2203023  -0.6079936  -0.3658513   0.0553291
  -0.0057558  -0.0958187  -0.1027269   0.2659747   0.0839876   0.1917839
   0.1249151  -0.1256561   0.1284483   0.1445996   0.5381764  -0.0738233
  -0.3259406   0.7015863   0.0295629   0.2133721   0.6253522   0.0195463
   0.1370116   0.0822533   0.2404350  -0.4769576   0.4706389  -0.3798751
  -0.1711874   0.0003397   0.7682645  -0.0653835  -0.3989087  -0.1623593
  -0.0210670  -0.1317023  -0.0271843  -0.2965609  -0.3865106  -0.4756810
  -0.1959432  -0.2688825  -0.4377328   0.1215081  -1.1229171   0.3250776
  -0.6160511   0.6819992   0.2218278  -0.0604991   0.1601789   0.0428920
   0.1609364   1.2274092  -0.3600041  -1.1611039   0.1578998   0.2948833
   0.2176901   0.3166651   0.0588426   0.4521476   0.4422341   0.6901580
   0.4554441   1.0147173  -0.7242634   0.1109664  -0.1406243   0.1192369
  -0.5337134   0.4895870   0.7616648   0.5184508   0.0907737   0.1765507
  -0.1296380   0.1777278  -0.3095468   0.2666607  -0.2197140  -0.4503635
   0.0161122   0.5982186  -0.0468199  -0.2105144  -0.1417577   0.0186697
   0.5145552  -0.4908027  -0.3059503   0.6107626   0.0970802   0.9107744
   0.2164614  -0.2004838  -0.0618630  -0.4715235  -0.9207127  -0.3258813
  -0.1421350  -0.0990271  -0.4391018   0.2184136  -0.0061673   0.2708454
   0.7240117  -0.0550631  -0.4121016  -0.0826919   0.5395276  -0.0802771
   0.1445450   0.1322001   0.1485990   0.6565969   0.2607407   0.1622365
   0.1027359   0.1719766   0.6984356  -0.2701363  -0.0037679   0.1442204
  -0.3175150  -0.3563831   0.9215786  -0.1722845  -0.0576796   0.7770515
   0.0622270   0.0130712   0.0410378  -0.1445416  -0.0399067  -0.2526331
   0.6014598  -0.0321479   0.8800357   0.1978162   0.2784457   0.2677818
   0.7757206  -0.1439191   0.5519008   0.3595515   0.9899412  -0.0026561
   0.1217397  -0.1323340  -0.1076499  -0.6932295  -0.0920940   0.1819552
  -0.0363347  -0.1314800  -0.1199503   0.1374455   0.0404436   0.3206415
  -0.1143677   0.2585386  -0.3972311  -0.2163639  -0.0214249   0.1730826
  -0.1000801   0.0300797  -0.1498450   0.0215925   0.2050189  -0.1836702
  -0.0988973   0.3544247   0.0418653   0.1800600  -0.0163256  -0.0545709
   0.6026871  -0.1972210  -1.1672415   0.3164376  -0.0973293  -0.4384650
   0.0205866  -0.1597548   0.1805455   0.2736673   0.5696209  -0.0067202
   0.1924688   0.1484896  -0.2455700  -0.1265093   0.2760414   0.0312728
   0.6914134  -0.2618567   0.2396773  -0.2278906   0.3811825   1.4568868
   0.1521520   0.1186298  -0.0969648   0.4891362   0.7911470  -0.1446982
   0.0956140   0.1925646   0.1615844   0.1783171   0.1924525   0.2872210
  -0.5982356   0.1461515   0.1572285   0.2795025   0.6016385   0.9171965
   0.2871749  -0.0418633   0.1076558  -0.5485644  -0.5704314  -0.1530507
   0.5468507  -0.1551977   0.8667464  -0.1368888   0.0213788  -0.0879230
  -0.0488762  -0.0069005  -0.1015862  -0.4266006  -0.2746044   0.8748810
  -0.2168255   0.1423328  -0.1056756  -0.2406608  -1.2496580  -0.2566078
   0.0458254  -0.1891603   0.0600696  -0.1696609  -0.0197314  -0.1228254
   0.3958143  -0.0823077   1.1266828   0.0868730  -0.7193208  -0.6717926
   0.1814912   0.2198056  -0.1805626  -0.1212007   0.0651563  -0.3207788
  -0.1731474  -0.4200815   1.9734094  -0.0109370  -0.0022869  -0.1167316
  -0.6647750  -0.1716469  -0.3726407  -0.2117659   0.3324461   0.0466980
   0.1118160  -0.1796314   0.2542033   0.8056137  -0.4133018   0.3740051
   0.7574186  -0.1258008   0.3585283  -0.0311155  -0.1344511  -0.1174693
   0.5989068  -0.3983119  -1.2953443   0.0808116  -0.1826755  -0.3281754
  -0.2252816   0.0569355  -0.1052760  -0.3754739   0.0433155   1.1565579
   0.1694736   0.4193985   0.9527750   0.1963190  -0.2326472   0.1828611
   0.1530868  -0.8637597  -0.0235584   0.0441371   0.8814949   0.3675631
   0.0658499   0.2027243  -0.3694696   0.2337179   0.1226203   0.1468083
  -0.0774528   0.9300545  -0.4554297   0.0602404   0.1266142  -0.2450549
   0.4267300  -0.0727995  -0.1319349   0.0297997   0.1132481  -0.2627194
   0.0660370   0.1395443   0.2386967   0.2398535   0.6998763  -1.1038630
   1.3047259   0.5186096   0.1769533  -0.0263969  -0.2355566  -0.1303296
  -0.5852807  -0.7000087  -0.1132410   0.4418037   0.1500898  -0.1688748
  -0.1601200   0.3473986   0.1323226   1.9169526   0.8939315   0.6015087
  -0.5409055   0.4233788   0.6501974   0.2504495   0.1005979   0.1758917
   0.3578468   0.3974280   0.1954263  -0.0544677   0.0201592   0.7735345
  -0.0635884  -0.2805686  -0.0701151  -0.1626609   0.3480249  -0.4753022
  -0.0419726  -1.9389502   1.0649628   0.1649070   0.2557737  -0.3062311
   0.2014156  -0.4343588  -0.3631796  -0.0172089   0.8443368   0.0219051
  -0.0548854   0.1890082   0.3235584  -1.0295887   0.3711640  -0.0163429
  -0.1778791  -0.5308000  -0.8470424   0.1574101   0.1367380  -0.1341692
   0.5521827  -1.2451396  -0.7357728  -1.0658536  -0.1757973   0.7978693
  -0.1174566   0.0738030  -0.1048283   0.4008532  -0.7949343  -0.7382592
  -0.3886899  -0.0038289   0.2657702  -0.1141210  -0.2033635   0.1779967
  -0.1140274  -0.1911223  -0.3791504  -0.8407247   0.1339523   0.2324972
  -0.1389805   0.1804257  -0.0861487  -0.6578553  -0.1149152  -0.1419937
   0.1880910  -0.0331861   0.0597993  -0.3057023   0.2879016   0.0312233
  -1.2819155   0.4439280  -0.9544212   0.2117420  -0.5709102   0.9096785
  -0.1222149   0.4179740   0.0341263  -0.3807393  -0.7270196   0.0013186
  -0.1224937   0.4855596   0.6712340   0.0724872   0.1753964   0.1992155
  -0.7770750   0.4164555   0.2223639  -1.1784868  -0.2334427  -0.4161734
  -0.0522195   0.1629335  -0.2048195   0.0750142   0.6468756  -0.2984130
  -0.3163448  -0.2359287  -0.2287950  -0.4608466  -0.1016336  -0.3045936
  -1.1108125  -0.2272419   0.2583137  -0.2164965  -0.4019516   0.2330412
   0.1192157  -0.0861360  -0.0850870  -0.7494644  -0.5328268  -1.2320788
  -0.6711261   0.8781389   0.8494585   0.1307534   0.2803877  -0.0419174
   0.2632131   0.1390839  -0.5126434   0.1598393   0.1269477  -0.6853499
   0.1593034   0.0015301  -0.0617105   0.4566845  -0.6237884  -0.0142960
   0.9792580   0.0341282  -0.1549852   0.2120417  -0.3741793  -0.1743520
   0.0382944   0.5490655   0.0494899   0.1002261   0.1083845  -0.0878906
   0.3022573   0.0439912  -0.2390040  -0.2446840   0.8621259  -0.9090974
   0.1091165  -0.0216294  -0.4784083  -0.2727535   0.2019503   0.0718133
  -0.8901486   0.3718142  -0.3305420  -0.0895438   0.4835248   0.1378423
  -0.0041401  -0.1972412  -0.1644444  -0.1037604  -0.5209140  -0.3290946
  -0.0324067   0.2212964  -0.1469484  -0.1624573   0.2325689  -0.2758784
  -0.7484583   0.4776556   2.0938682   0.1435159   1.1169169   0.4394466
   0.3277081   0.0570035  -0.0200890   0.4512377  -1.0843679   1.2588849
   0.8767586  -0.2177430  -1.4314989  -0.1421407  -0.0196321  -0.0943841
   0.6598503  -0.3347989   1.3306017  -0.0717734   0.2178686   1.1772212
   0.2080594  -0.0404696   0.2278680  -0.3883104  -0.4321068  -0.7022259
  -0.5363947  -0.6281196  -1.0192545   0.1052478   0.0300305   0.0840106
  -0.6263973   0.3574929  -1.0525648  -0.2739548   0.5132156  -0.0884960
  -0.3283347   0.0519636  -0.1890149   0.1820092  -0.4949530  -0.0174356
  -0.3971876   0.1123397  -0.2292592   0.0172543  -0.0466441  -0.1550743
  -0.0270516  -0.1107686   0.2960157  -0.0885616  -0.9252360  -0.0257248
  -0.1917818  -0.2207596   0.1711754   0.2335839  -0.0301897  -0.0129780
   0.7799122   0.0928558  -0.1261922  -0.2437198  -0.0840999   0.1361095
  -0.3015618  -0.3445912   0.1682918  -0.1301756  -0.1305492   0.2085575
  -0.0373818  -0.0082909   0.0787678  -0.4704042  -0.3197088   0.5555430
   0.0435389   0.6463969   0.0524815   0.1451760  -0.1296295   0.1319518
   0.1160877  -0.2462569   0.1611198   0.1259089  -0.4067791   0.0028641
  -0.2193936   0.0285280  -0.0784175   0.5190058   0.2591644   0.2429138
  -0.9624271  -0.0019315  -0.1539111   0.1349547  -0.1982479   0.1065595
   0.0852693  -0.3802542   0.3162575   0.3358379  -0.2515314   0.3435451
  -0.2435243   0.1741569   0.2764499   0.3589422   0.2241874   0.4088980
  -0.3322759  -0.3158885   0.0658609  -0.1836656   0.2766217  -0.0564815
  -0.0176370   0.3259052  -0.1927429   0.6571188   0.5399257   1.1334729
  -0.0947188   0.1540448   0.2136056   0.3512492   0.2218238  -0.4522840
   0.0588772  -0.0141372   0.3672509   0.0775440  -0.2862196  -0.3674996
   0.2871484   0.2428210  -0.2714660   0.0402264  -0.4055456  -0.4289018
  -0.1629782  -0.0826301   0.3712737   1.1417001   0.2233545  -0.1340131
  -0.2065514   0.4722064   0.5899165   0.0775147   0.0847708   0.1952320
   0.4880211   0.3681738   1.2185674  -0.3359030   0.0159552  -0.4458092
   0.1621404   0.1594209   0.2831967   0.4154866   0.4623360   0.0063628
   0.5051783   0.0153432   0.3494077   0.0175088   0.0425582  -0.1540412
  -0.0365455   0.1348026  -0.1071935   1.1935865   0.1522537  -1.1646534
  -0.0743479  -0.2515442  -0.0025736  -0.0473780   0.5556696  -0.4737057
  -0.0408178  -0.7999120  -0.0869358  -0.3027349  -0.0672946   0.1696187
   0.1114513  -0.1528836  -0.1985817  -0.0912379   0.0346703  -0.0766725
  -0.0691579  -0.0586244   0.0355377  -0.2296915  -0.5941075   0.0001004
   0.2882261  -0.6878848   0.3652879  -0.1470427  -0.1800076  -0.4131974
   0.8855866  -0.9356030  -0.3624308  -0.1812136   0.9213134  -0.3084285
  -0.1380160  -0.1948393  -0.2170438  -1.1228777  -1.0722807  -0.2196544
   0.7037082   0.5516321  -0.2614116  -0.1173304   0.0007374  -0.0267741
  -0.5151453  -0.3531370  -0.3656789  -0.5351303   0.3202464   0.1706113
   0.0659618   0.0787620  -0.2824010  -0.3722869   0.3155262   0.7985025
   0.0228721  -0.3239352   0.1775808   0.5790252   0.0457131   0.1724220
   0.7151894  -0.1249465   0.6119676   0.7133326  -0.3118594  -0.1510079
   0.0241597   0.0194691   0.1697678  -0.2268302   0.5324924  -0.5674911
   0.2512257  -0.6469508  -0.4040828   0.2100643   0.1025479   0.1223120
   0.0632618  -0.1153457  -0.0557166   0.0990178   0.3204417   0.4576566
  -0.2397047  -0.0671451  -0.1413546  -0.5566925  -0.3072618   0.2819649
   0.1376186   0.7818165  -0.5074901  -0.1342500  -0.2772833   0.0336245
   0.9128301   0.3958324   0.0953678  -0.0600915   0.1798141  -0.0991689
  -0.0760386  -0.0099635  -0.2699513   0.3194588   0.1579105  -0.0012655
  -0.2614585  -0.0141367  -0.6253323   0.1277669   0.2844675   0.0692586
   0.2375385   1.0137454   0.7792296  -0.1589944   0.0491681  -0.5161066
  -0.1845560   0.1967292  -0.0047115   0.6363567  -0.4613033  -0.6872001
  -0.7103187  -0.1558572  -1.5655129  -0.1374962   0.4051037  -0.2359803
  -1.0377334   0.3550510  -0.2685494   0.3272142   0.2314023  -0.6257779
  -0.1468314  -0.3774652   0.1578062  -0.1919514  -0.3504736   0.7334680
  -0.0942145  -0.4088877  -0.1346710   0.0154586   0.2811147  -0.4171397
   0.9195830  -1.8096656  -0.8203343  -0.0543078   0.1385790  -0.7608632
   0.0901563  -0.2935798  -0.1451084   0.0867191   1.3149564   0.0743313
   0.2438518   0.4580184   0.1535087   0.1740226  -0.1689637   0.0974088
  -0.6630691   0.5384715   0.3891581   0.3722650  -0.9083677   0.5228927
  -0.2086523  -0.0114022  -0.0027884  -0.1512375   0.0576070  -0.2159192
  -0.2292761  -0.6023149  -0.2649921   0.0058959   0.0715283   0.1038312
  -1.1440775   0.0376006  -0.3561419  -0.5059392   0.0282153  -0.3509186
  -0.2929479   0.1629073  -0.1143988  -0.7894494   0.8719128  -0.2122431
  -0.0251813   0.3724360   0.0281572   0.2834875  -0.0319317  -0.0090331
   0.0057793  -0.0864526   0.0336596   0.6048041  -0.0330093  -1.1396815
   0.3490919  -0.3545168  -0.1921160   0.9692852   0.0015285   0.0007019
   0.3129460  -1.0194552  -0.4834356   0.1025950  -0.0782723  -0.1436377
  -0.2281660   0.1379743   0.0062850   0.5661342   0.1013846   0.4702451
   0.0060894  -0.1994686   0.0532191  -0.1479926  -0.4900154   0.2283708
   0.1043231  -0.1455612  -0.0024602   0.1186188  -0.1732765   0.2785050
   0.2548881  -0.0647555   0.2571370  -0.2896259  -0.0833698  -0.0626317
  -0.2902350   0.0060934   0.1257512  -0.1134281  -0.5182687  -0.1376723
  -0.5236462   1.1580429   0.4665970  -0.1750616   0.1402515   0.0595755
  -0.6330176  -0.3974806   0.1107979   0.6769428   1.0105657  -0.0246579
   0.0160339   0.1080438  -0.0223031   0.1175075   0.5521126  -0.1494713
   0.0109553  -0.3553023   0.1283076  -0.3127603   0.1890151  -0.0493832
   0.7229857   0.5578176   0.3024709   0.3582946  -0.4741224  -0.6394662
  -0.2521337   0.1864352  -0.5778607  -0.2034730   0.4125165  -0.6900470
   0.2560755   2.0552723  -1.2229128   0.1783054  -0.0105584   0.2617120
   0.2664743   0.6717810   0.4847986  -0.0528841   1.3099719   0.7352294
  -0.1665143   0.0229984  -0.1278350  -0.8132617  -0.0267696   0.0789711
  -0.2368522   0.0735122  -0.8050875   0.3134234  -0.1119318   0.0315550
   0.9150152   0.0660765   0.0324870   0.1399716   0.7865240   0.1082471
   0.0965927  -0.3132420   0.1919829   0.0568621  -0.4062825  -0.2465641
   0.1757616  -0.2294656  -0.2085392   0.3745029   0.0143857  -0.2241261
  -0.2931135   0.4052486   0.8487740   0.1811691  -1.5341774  -0.8981113
   0.0607370   0.1018555  -0.0401679   0.9010379   0.1698014  -0.6993211
  -1.2609948  -0.4811689   1.3173941  -0.1011628   0.1805307   0.1415471
   0.4618625   0.0799643   0.7842719  -0.8577892   0.4644363   0.5454064
  -0.0876819   0.2490929   0.1199635  -0.0068745   0.0420095   0.1753678
  -0.2329586   0.1270639  -0.0827551  -0.1816477   0.4916660  -0.3967132
  -1.2584644   0.1137558  -2.1132155   0.2290278  -0.4138335   0.5598857
  -0.0665796   0.0245172  -0.3338546   0.2014407  -0.2290129  -0.2033267
   0.1561533   0.3369523  -0.9146578   0.1782175   0.1362674  -0.0385176
   0.7776814  -0.8324526   0.1420309  -0.7175451  -1.6112541  -0.8208731
   0.2643158  -0.1161712  -0.2515718  -1.4093367  -0.4864297  -1.1064319
  -1.0996588   0.0308770  -0.4407469  -0.0035845   0.2057054  -0.0247501
   0.3387337  -1.6213647  -1.2046813  -1.7806011  -0.2151789  -0.7940727
   0.2223591   0.0563408   0.0532241   0.5367560   0.2659036   0.0065135
  -0.1214875  -0.2403983   0.2493690  -0.0725545  -0.0836485   0.2439001
  -0.0494635   0.0325912  -0.0190039  -0.1082056  -0.2763806   0.6770454
  -0.0397565   0.1139758   0.0367913  -0.2707919   0.3169008   0.1167288
   0.3316094  -0.0506318  -0.1593555  -0.0534045  -0.0969888  -0.3105103
   0.4863886   0.5036750  -0.1730693   0.1892579  -0.0625873  -0.3630352
   0.0071783   0.2091427  -0.0111982   0.9212764   0.7997333  -0.1321467
  -1.0161187   0.5498487   0.1833322   0.1500085   0.1905908  -0.1827632
   0.0392820   0.2317034  -0.1391311   0.7831755   0.6626901  -0.1998786
  -0.1123604   0.0231450   0.0079851   0.8091251  -0.5084351  -0.3200342
   0.3957899   1.2050728   0.0725995   0.0618802   0.0690723  -0.3815328
  -0.5469185   0.0401737  -0.3598754   0.4486326   0.6946032   0.3160423
  -0.1317681   0.4490464   0.1943744   1.1010470  -0.0226326  -0.2570221
   1.2838566  -0.8070581   0.1259881  -0.0644723   0.1116903  -0.0495532
  -0.1530422   0.1852902  -0.0025755  -0.1092090   0.1996909  -0.0144049
   0.1440349   0.1077175  -0.0554738   0.0941337   0.1717622   0.7337643
   0.3447610  -0.3116349   0.6178088   0.0788268  -0.0393943   0.0426895
   0.7994514   0.0932508  -0.0556981   0.1028770  -1.1270171   1.6403448
   0.4408306  -0.1396432   0.2196447   0.3350402  -0.4210174   0.6207088
   0.2616852   0.2094888   0.4611566  -0.1922593  -0.2260807   0.2594865
  -0.3811488  -0.0575277  -0.3706945   0.1275520   0.8380050   0.8378400
  -0.1191696  -0.1014072   0.0888257  -0.1925129   0.2116368  -0.2738982
  -0.4564167   0.2422113  -0.4778517  -0.1477574   0.1380332   0.1169221
   1.5099790  -1.6179124   1.4853111  -0.1511408  -0.2587777   0.1988776
  -0.0995169  -0.4509163   0.5029987  -0.0724360   0.0852399   0.4934706
  -0.0322619   0.0169116   1.0394060  -0.0598088  -0.2174088  -0.1663410
  -0.0762489  -0.7013589  -0.2358491  -0.1552099  -0.2630286  -0.0092219
   0.1642320  -0.0135086  -0.1188755  -0.8893866  -0.5920699   0.8730430
  -0.0311372  -0.2251478  -0.0494412   0.1128101  -0.0217679  -0.1230110
   0.3179813  -0.3653391   0.0993789  -0.1730134   0.4533715   0.0255079
  -0.1024622  -0.1459917  -0.1144462   1.0599632  -0.0791442   0.3634304
  -0.4749306   1.0611837  -0.1588296  -0.0594248   0.3290196  -0.2499437
  -0.4558452   0.0101857  -0.2761078  -0.5342514   1.5043097   0.3670495
   0.1486055   0.2261274   0.3373090   0.4162067  -0.3649908   0.2625878
   0.3695320  -0.1809485   0.2995460  -0.0532554  -0.1720205  -0.0390611
   0.3353917  -0.1766963  -0.0104819  -0.2583754   0.4726810  -0.3606626
  -0.1414716  -0.2014423  -0.3580652  -0.4509878   0.1336710   0.2682642
   0.7327314  -0.0004379  -0.6727106  -0.1447019   0.3478527   0.1125342
  -0.7380578   0.8488239   1.1056092   0.0905348   0.1385727  -0.3068534
   0.2035338   0.0622624  -0.0523859  -0.4985973  -0.9876708  -0.4305188
  -0.3690430   1.3098338  -0.0457839  -0.0124628  -0.2145635   0.2889289
  -0.2171463   0.4872340  -0.5629182   0.2059862  -0.9907097   1.2266789
   0.0228540  -0.0339962   0.0147412   0.0828550   0.0897075   0.1480358
   0.1446896   0.1056490   0.0922575   0.2432980  -0.3680632   0.2157506
   0.0569798   0.4395200   0.9236827   1.1088567  -0.2998924   0.0646376
  -0.1967089   0.0110606   0.0394322  -0.0695992  -0.4693214   0.8069264
  -0.9998053  -0.0556115  -0.1289258   0.0265774  -0.3804969  -0.1115928
  -0.2633164  -0.3713005   0.3131984  -0.3153007   0.7075493  -0.3300585
   0.1118571  -0.1026960  -0.0116184  -0.2136736  -0.1293219   0.5082878
   0.5516759   0.4184853  -0.0966138   0.2789672   0.0384783   0.0160834
  -0.4870851  -0.3768888  -0.2280873   1.1518409   0.2151297   0.6148812
   0.3527836   0.2423638  -0.1251051   0.6392640   0.6044604  -0.6438310
  -0.3268716  -0.6227927   0.3811669   0.0345683   0.3264494   0.4563128
  -0.2269115   0.4643158   0.2881054  -0.9382901   0.0696741  -0.0370276
   0.2509202   0.1537054  -0.1554705   1.0089388   0.3622746  -0.4674778
  -1.4212759   0.1585599   0.5834132  -0.1566646  -0.1080055  -0.1199595
   0.1815877   0.0981822  -0.2418249   0.0177496  -0.7713234  -0.0949732
  -0.1757389   0.0944833   0.1006220  -0.5461680   0.2854157   0.5656830
   1.1037316  -0.7489199   1.2331006  -0.0155955  -0.0609019   0.3347634
  -0.1476959   0.4297453   0.1985070  -0.6238223  -1.1803778   0.2449204
  -0.1399880  -0.2410641  -0.0797729  -0.3795499  -0.7073690   0.2454088
  -0.4388691  -1.5529176   0.5424671   0.1328558   0.4356691   0.0126161
  -0.6312841   0.0438508   0.2475544  -0.6889107   0.3358000   0.2345333
  -0.4377644   0.0668284   0.1841261  -0.4089464  -0.8644896   0.4037816
  -0.6614198   0.0811768   0.1724790   0.2901017  -0.1030003   0.1949004
  -0.1615897  -1.1012231  -1.0793586  -0.0858033  -0.2342991  -0.3529559
  -0.1841372  -0.0786720  -0.1172656  -0.4501058  -0.5592312  -0.7446244
   0.3677174   0.4172656  -0.0996364   0.0642759  -0.3617796  -0.1847391
  -0.1103759   0.3414964  -0.5478165   0.0723156  -0.2594362  -0.2542518
  -0.2943267   0.0450806  -0.0011469  -0.6766734  -0.1350172   0.3257068
  -0.5263107   0.6445742  -0.1665994   0.0341200  -0.0110267  -0.0312619
  -0.0491682  -0.2685844   0.7062741  -0.6442203  -0.2779818   0.1150413
   0.0239285   0.0983592   0.0267993   0.0760001   0.1791700   0.1620788
   0.1374351   0.0907185  -0.0391769   0.2881654  -0.1289913  -0.3004560
   0.4378586  -0.6605012  -0.1281999   0.5652767   0.0029627  -0.1029109
  -0.0019087  -0.1192255   0.0286083   0.6558591  -1.3873236  -0.5208771
   0.6880385   0.6538386   1.3127343  -0.0108232  -0.1806192   0.1222748
  -0.3693619   0.3685195   0.3086159   0.5306823  -1.3092297  -0.3195122
   0.0084269   0.2229469   0.0796201  -1.0971160   1.0451542  -0.2974043
   0.2288274   0.7851617  -1.0410862   0.2170427  -0.3174355  -0.0327676
   0.1864218  -0.3030747  -0.9966117   0.7657617   0.1411554  -0.2745363
   0.0066967  -0.4426043   0.1600913  -0.1531505  -0.6512394   0.9379340
  -0.6167676   0.4856691   0.0622501   0.1195107  -0.2462366  -0.0045705
   0.1071703  -0.5101542   0.3896612   0.2638358  -0.2964109  -0.0656931
  -0.0717225  -0.0574454   0.2437412  -0.0429101   0.0547563   0.1758011
  -0.1475855   0.3730233  -0.1814372  -0.2137588  -0.0754204   0.1372885
   0.3055719  -0.3911668   0.6901190   0.2636577  -0.5546285   0.3188667
   0.0736343  -0.3565628  -0.1208231   0.1193357  -0.2867564  -0.2303084
   0.0070153  -0.3548794  -0.0555117   0.0176349   0.0513872   0.1215959
  -0.0389253   0.1689063   0.1748060   0.6346948   0.2617240  -0.6250727
  -0.0675645   0.1167361   0.1039857  -1.1610547   0.2094580  -0.2800738
  -0.8054361  -1.0606806  -0.5573882   0.0589836   0.1639687   0.2231399
   0.4685635  -0.1648886   0.5082019   1.0129633  -0.4061069   0.2765307
  -0.2406135  -0.1867336  -0.0463812   0.6560897  -0.0774698  -0.1700132
   0.4633638  -0.1602015   0.0764191   0.1396412   0.2199771  -0.1130755
  -0.5140565   0.1096966  -0.3291923  -0.6642680   0.1921032  -0.1501225
  -0.0638020  -0.0688201   0.1957499  -0.2519936  -0.0569159   1.2572174
   0.5222523  -0.0814710  -1.0270433  -0.0059218  -0.2352096   0.0637454
  -0.7364560  -0.7681434  -0.6545423   0.3224791  -1.0668421   0.8857024
  -0.2681739   0.0481693  -0.0755661   0.2584863   0.3449792   0.2561985
  -0.2977445  -0.2721597   0.2044460  -0.0182873  -0.0671512  -0.0003816
  -0.0442476   0.0165950  -0.4829795   0.3811507  -0.1826539   0.0665629
  -0.0900467   0.0833411  -0.1460279   0.2797062   0.0524165  -0.1438399
   1.0381143  -0.4582299   0.6879543   0.0031834   0.1932873  -0.2187205
   0.6270189   0.5936826  -0.9639136  -1.2290184   0.0481409  -0.2411744
   0.2697381  -0.2129201  -0.1245966  -0.3570386  -0.6737509   0.6746543
   1.3380318  -0.7875693  -0.3043790   0.2374973   0.0730772  -0.0619585
  -2.1887085  -1.6740349  -0.3358056   1.2618777   0.4033115  -0.0000782
  -0.2074917  -0.0928015   0.3773836   0.1592368   0.2854393   0.1008844
  -0.5263208  -0.9671698   0.8370837   0.0592953   0.2015924  -0.2356459
  -0.0755151   0.9648332  -1.3868424  -1.1949490  -0.7514677  -0.6728828
  -0.2385094  -0.2157687  -0.5121667  -0.4031898   0.8716163   0.7707027
  -1.0663051  -1.9487505   0.3675782   0.0237474  -0.0101721  -0.1000928
  -0.3505867  -0.8408568   1.1282939  -0.3661544  -0.6598229   0.2584198
  -0.1565166   0.3270553  -0.1473887   0.0283487   0.2238318  -0.2449446
   0.0224801   0.4854519  -0.0894802  -0.2785381   0.1641677   0.1924325
  -1.3241935   0.8004788  -0.0148775  -0.8070254   0.2706386   0.2290587
  -0.2170486  -0.0407382   0.1483367   0.4530536  -0.4259645   0.5030802
  -0.2970523   0.0165568   0.0212732   0.1076580  -0.3683304   0.2498928
   0.5742803  -0.0925234  -0.1868931   1.0321279  -0.5291149   0.6159309
   0.0599232  -0.0986966  -0.0310407   0.1196257   0.6783508  -0.5864220
   0.1423189  -0.8338770  -0.6452818  -0.1363872  -0.2101371  -0.0983119
  -0.6301532   1.3082226   0.5303768  -0.7202090  -1.2508417  -0.1380297
  -0.0951370   0.0849680   0.0113774  -0.5636936   0.5391519   0.8831030
   0.0456689  -1.3766486  -0.2855991  -0.2609726   0.1121153   0.2802325
  -1.3270490   0.3882812   0.2359821   0.3998129  -0.0398212   0.1750809
  -0.1556038  -0.1735296  -0.3062319  -0.2660859  -0.5370352   0.0378048
  -0.0263934  -0.0154013  -0.2753503  -0.1796434   0.2359608  -0.3056316
  -0.7248074   0.0793493  -0.2637368   0.3210244   0.1068803  -0.5804360
  -0.1880757   0.2187929   0.2305099   0.3379625   0.4711300   0.3345170
  -0.5474818   0.2478888   0.1326333  -0.0561298   0.0100192  -0.1229871
   0.3802118  -0.5445625   0.0396341   0.3833852  -0.1411182   0.3413118
  -0.1856723  -0.0668581   0.1441989  -0.3277942   0.1232789  -0.1170060
   0.3424196   0.9697944  -1.1874178  -0.2578081   0.1922184   0.0383765
  -0.4441228  -0.2951271   0.7318037   0.3147323   0.5997408  -0.2862369
  -0.2456522  -0.2216281   0.0819492  -0.0375521  -0.5734662   0.3281694
   0.1433895  -0.7184123   0.4595709   0.0513081   0.0773839  -0.1893989
   0.8408628  -1.1931012   0.0031698   0.0374718   0.0135429   1.1221426
  -0.2477220  -0.1266202   0.1920915  -1.0567444  -0.3614659   0.1455230
  -0.3846171   0.6702757   0.7672372   0.1775695   0.1430349   0.3526636
   0.3630289   0.9295377   1.0096724   0.1038495   0.1485470   0.3216206
  -0.2013268   0.0355162  -0.0679330  -0.2858092  -0.2231576  -0.3211484
   0.2093626   0.2458549  -0.6484320   0.1598411   0.2262538   0.2471598
   0.2825840   0.0163813   0.0257598   1.2699660   0.6789484   0.3502226
   0.0688396   0.0426352  -0.0077506   0.2682204  -0.1085483  -0.6488323
   0.3629479  -0.4584851   0.4806768  -0.1175973   0.1563409   0.0400731
  -0.2927447   0.4460956  -0.2740270  -0.4027376  -0.0115389   0.0204187
  -0.0825277   0.0984919  -0.1521247   0.0249786  -1.0892015   0.5842709
  -0.7109438   0.5082469   0.1351316   0.2362236   0.2428692  -0.0487355
   0.7315939   0.0421281   0.2665509   0.0067680   0.1159727  -0.1410450
  -0.1261877   0.0083848   0.2018376   0.5809137   0.0377277   0.7461330
   0.5379311  -0.6389336   0.5554732   0.0897851  -0.1578685  -0.1392619
  -0.6841729   0.8444334  -0.5034664  -0.7643877  -1.3220747   0.1428256
  -0.1517248   0.1055755   0.0629684   0.6197594  -1.2392367   0.8741928
  -0.1045125  -0.1619640  -0.2158745  -0.0113559   0.0601884  -0.0560558
   0.2486609  -0.1841879  -0.0551920   0.3383634   1.2194306   0.1375951
  -0.0814626   0.0708824   0.0503226   0.7298189  -0.4859719  -0.3075525
   0.4577591   0.2674453   1.5005384   0.1488126  -0.0796732   0.3361384
  -1.3893648  -0.1414638   0.2305005   0.7040447   0.0903569  -1.3961944
   0.0992389  -0.0314252  -0.2034774   0.3487828  -0.3890167  -0.9041946
  -0.2343596  -0.4166977  -0.5457770   0.0137462  -0.3702207   0.3044530
   0.1525217  -1.4337834  -0.5706089  -0.3060806   1.2767184   1.2871518
   0.2620940   0.0080826   0.2207040   0.2867901   1.5623999  -0.1423405
   0.0226996  -0.8876562   0.2353727  -0.0838322   0.0607253  -0.0098634
   0.2147197   0.2281046  -0.8835133   1.6581203  -1.1045602   1.4191082
  -0.4038274  -0.0323007  -0.1099710  -1.6220724   1.1815725  -0.1718470
   0.1591005   1.2593863  -0.8355275  -0.0301337  -0.0682284   0.0417412
   0.0886466   0.1592279   0.1417124  -0.0578406  -0.2195934   0.2636998
  -0.0420736  -0.0404857  -0.2229757  -1.3988945   0.0835446   0.4323273
  -0.6707868  -0.5651957  -0.3394922  -0.0917760  -0.1318738   0.2234014
  -0.4402397   0.1387674  -0.4904484  -0.3087956  -0.4028622  -0.0543885
   0.1202543  -0.2464927   0.3709223   0.0807019  -0.4174615   0.2238842
  -0.1988925  -0.0532417   0.5944586   0.1519070   0.1529684  -0.2232961
   0.1465004   0.3961495   0.1796975   0.1339872  -0.1689242  -0.4773255
   0.2157272   0.2504235  -0.2275206   0.4055626   0.1606734   0.0245875
   0.0324259   0.5670322  -0.7239112   0.0640917   0.3030367  -0.1529697
  -1.1381319  -0.2769007   0.2320663  -0.9855693  -0.0433943   0.7535466
  -0.0394911  -0.0899576   0.1035791  -0.5113549   0.2759446   0.6780009
   0.1574425  -0.4183713   0.1444223   0.2211579   0.4885107  -0.2074582
   0.9184613   0.6062531  -0.8570632   0.1066338   0.0299743  -0.5344339
   0.3507090   0.2844549   0.4454328   0.3391148  -0.3565265  -0.6969269
   0.2795381   0.0725340  -0.0089201   0.1117489   0.2524995  -0.3893138
  -0.3963252  -1.1579700  -0.0327130   0.0155998  -0.2689590  -0.3525550
  -0.0166462  -0.2252875  -0.3161007  -0.1590358   0.1846998  -0.4395862
  -0.2505393   0.2998372  -0.5118662   0.2807800   0.3954793  -0.2028609
  -0.2425109  -0.0457367  -0.2188827  -0.3730698  -0.3810425   0.2535270
  -0.1175913  -0.0687815  -0.2635670   0.5326697   0.1640041  -0.5787933
  -0.0182309   0.5013107   0.2723219   0.0994737  -0.0480126  -0.1803301
   0.1780800   0.3618648  -0.6737319  -0.0909784   0.3335189   0.3838871
  -0.1830133   0.5456435   0.2256059   0.9093403   0.5111488   0.4804702
  -0.2118925  -0.0043278  -0.1448504  -0.0152963  -0.2077777   0.1744717
  -0.0587429   0.2221895   0.1397926   0.0121660   0.2737864   0.8002387
  -0.0388452  -0.0224591  -0.4533483   0.1818743   0.0238122  -1.1427295
   0.3182095   0.6390724  -0.2023715  -0.0051880  -0.3528430  -0.1427007
  -0.0614551   0.5712355  -2.5291014   0.4280224  -1.2641028  -1.8151141
  -0.0345144   0.4574338   0.1010742  -0.7468705  -0.1339157   0.9194620
   0.2763664   0.7297288  -0.4014041  -0.1806502   0.1953268  -0.0402591
  -0.2031871   0.2179688  -0.1708441  -0.1015606   0.2592503  -0.0780739
   0.0107953   0.1228367   0.1105980  -0.8742968  -0.3162206   0.0873750
  -0.3428209  -1.6093665  -0.9778013  -0.0959953   0.0170403   0.0783274
   0.0289958   0.2550615   0.1555378  -0.1440736  -0.0566615   0.3323187
  -0.0395110  -0.3159142  -0.0103136   0.1060189  -0.1244006  -0.0519793
  -0.4743953  -1.0326166   0.3756715  -0.0238505   0.3010588   0.1185445
  -0.4333966  -0.2842832  -1.1819132  -0.0332747   0.0069441  -0.4653251
  -0.1678174  -0.1472794  -0.0240074  -0.3580461  -0.2025742   0.4078513
  -0.3814920   0.3043050   0.0065368   0.1370585   0.0842411   0.3295994
   0.1096840   0.0624204   0.8820579   0.1060881   0.0443655   1.3160094
   0.0187105   0.2116023  -0.0733779   0.0077929   0.3285524   0.4542271
  -0.0979947   0.0804199  -1.0915993  -0.0247598  -0.0978811   0.2634856
  -0.7339244  -0.2927713   0.0844750   0.2766429  -0.0964291  -0.2325374
   0.0820834   0.1932337  -0.1306211   0.2219629  -0.9986722   0.0345836
   0.0446791   0.6121380  -0.1665856   0.1580612  -0.1758912   0.2745563
  -0.7728341  -0.0474193  -0.5810092   1.1164025  -0.4146942   0.8589531
  -0.0505554   0.1558658   0.1481725   0.7780334   0.9865377  -1.3293516
  -0.2148982  -0.4674197  -0.0212364  -0.1178822  -0.0268972   0.1889200
   0.1279606  -0.3322687   0.1733207  -0.4450860  -0.1728598   0.3610438
  -0.3049418  -0.2791223  -0.0139296  -1.1973645  -0.4502898  -0.2523561
   0.1196657  -0.1962029  -0.7965301  -0.1608104  -0.0214440  -0.1587531
  -0.0653500  -0.0695100  -0.1045787  -0.3308488   0.6523188   0.3842298
  -0.0748437  -0.0293066   0.2181928   1.7464468   0.1573101  -0.3523275
   0.6188748  -0.1959466  -0.5741746   0.0860109  -0.0618523  -0.0725047
   0.0755745  -0.6038667   0.9688182   0.0418225  -0.7603984  -0.1351802
  -0.0645499  -0.3697914   0.3162471   0.0430205   0.0819676  -0.0323995
   0.0937227  -0.9468408   0.0022816   0.1663258  -0.3711702  -0.2328729
  -0.0524187  -0.2154006   0.1157155  -0.0683668  -0.2914744  -0.2004313
  -0.0399604   0.2151700   0.1670013   0.1260378   1.6114263  -1.1799425
   0.7698547  -1.2571211  -0.0044625   0.0571163  -0.0708713   0.0776481
   0.1074940  -0.0032323   0.0603444   0.2463983   0.5184769  -0.1050386
  -0.0642887  -0.2063690   0.4348411  -0.7796494   1.3045198   0.6364974
  -0.8000533  -0.2408979  -0.0032612  -0.2540279   0.1821763  -0.2348054
   0.8156017   1.1804663  -0.9026289  -0.2369882  -0.3175167  -0.2687048
  -0.0538797  -0.1039869  -0.0310332  -0.1776893  -0.1708517   0.7298662
   0.6403130  -0.0918590   0.0541973  -0.1115516   0.1006256   0.1518058
  -0.4618493   0.6375220   0.6067568  -0.1408013   0.0576493   0.3244592
  -0.1798283   0.0121671   0.0547753   0.2056271   0.5987703   1.2496900
  -0.3985045   0.2804203   1.2005454   0.1902913  -0.1882477  -0.0721494
   0.1698398  -0.6931735  -0.7400400  -0.0261240  -1.0930600  -0.4453081
  -0.1612418   0.1059454  -0.0244988   0.0796212   0.2198964   0.0493147
  -0.0168348  -1.0418879   0.0374979  -0.0481760  -0.0862673  -0.2368326
  -0.9978897  -1.4518653  -0.1836905  -1.6551305   0.9975217   0.0445626
  -0.0725802   0.0248547   0.1213671  -0.1716206  -0.1944329   0.6458098
  -0.1543900   0.4060288  -0.8540453   0.0545844   0.1253253  -0.3443648
   0.2971021  -0.2461676   0.3607558   0.0121340  -0.1089545   0.2122431
  -0.2878676   0.3327068  -0.1416025  -0.1816900   0.4825887  -0.6004219
   0.2356128   0.3187506   1.6075021   0.1801142   0.1039784  -0.1604312
  -0.8581425   0.5161159  -0.2595604   0.0370329  -0.1030619  -0.1840875
   0.1422178  -0.0967965   0.2688325   0.3993411   0.0935293  -0.7323609
  -0.3534631   1.1966572  -0.1900456   0.0970478  -0.0192945   0.1094327
   0.4589018  -0.0335163   0.3152369  -0.8715688  -0.5456144   0.0429007
   0.0674669  -0.0920408   0.0510167   0.0483075   0.5412375   0.2615572
  -0.0844962   0.5545213  -0.1746587  -0.1833206  -0.3701693  -0.4207089
   0.0372966  -0.4080047   0.1109720  -0.0589383  -0.8784479  -0.7422091
  -0.0672150   0.4086949  -0.2071292   1.2970533  -0.0598274  -0.4300659
  -0.3203452   0.1564236   0.8931540   0.3157921  -0.1335547   0.0721834
   0.3298055   0.1799147  -0.3347655  -0.5200479  -1.2658348  -0.2833455
   0.3819832  -0.1770516   0.4995034   0.9029437  -1.0309752   0.5455407
   0.5872412  -0.6038366   0.1698103  -0.3761286  -0.0685774   0.6274307
  -0.1464820  -0.5042314   1.7524177  -0.0024235   0.5703424   0.5899903
  -0.0669456  -0.0912342   0.0484973  -0.0228996  -0.3948340  -0.1025218
  -0.0580991   0.0053189   0.0645466   0.0048160   0.4028114   0.2700425
  -0.8742664   0.2300275   0.6796953   0.3505994   1.3414844   0.1324920
   0.2769381  -0.2135277   0.2321012  -0.5004690  -0.0604002  -0.2750174
   0.6283104  -0.9944176  -0.1379664   0.2512561  -0.1335507  -0.0643690
   0.2706810   0.2305080   0.6822565   0.2000451   0.5457229   1.0354601
   0.0606248   0.0183551  -0.0934666   0.1585478   0.2484721  -0.2887515
  -0.1733746  -0.2222674  -0.0439338  -0.1451941   0.0953192   0.1033552
  -0.2506695  -1.1890777   0.1708697   0.2811757  -0.0667476  -0.0097648
   0.3525627   0.0911387  -0.0535851  -0.4372326   0.2257344   0.6410540
   0.4667936  -0.8324991  -0.2240878  -0.1623856  -0.0400294  -0.0966701
   0.1543510  -0.1281050  -0.5090721  -0.0917338   0.4765062  -0.2113035
  -0.4280012   0.0067192   0.1146032  -0.3684068  -0.1487091   0.4259490
  -0.2808458   0.4070247   0.1342389  -0.0431550   0.1060396  -0.0633212
  -0.1404627   0.0180458   0.2048657  -0.4629106  -0.3912349   0.6812211
   0.1830736   0.1802081  -0.0693469   0.9786962   0.4354582  -0.4158212
  -1.1107806  -0.2343588   0.5027361   0.1919973  -0.1178866  -0.1906088
   0.4949261   0.0503092  -0.5023547  -0.4089757  -0.5350700   0.5826976
   0.1718786  -0.3773189   0.0257752  -0.1627070  -0.8427604   0.1797637
  -0.1771312   0.3341785   0.5389928  -0.0438272   0.0716037   0.0723610
   1.1902576  -0.1616322  -0.2089409   0.2563574   0.9947689  -0.2660466
   0.0586821  -0.0532041  -0.2951263  -0.4720587   0.1431898  -0.9708408
   1.2902843  -1.1931080  -1.2018025   0.5211934  -0.0796494  -0.0368464
  -0.4977004   0.0543311  -1.0085834   0.1591220   0.0018478  -0.4579403
   0.1951677  -0.0669847  -0.0820869   0.0306064  -0.1864751  -0.4149359
  -0.2100276  -0.1908378   0.1614475   0.2544636  -0.0084318   0.3227785
   0.0304136   0.0229483  -0.0510480   0.4738711   0.7122663   1.0674069
  -0.3300623  -0.2495895  -0.1150759  -0.3189527  -0.1883534  -0.1172823
  -0.3881078  -0.1543715  -0.0292901  -0.0118601   0.0588786  -0.1125927
  -0.6055129   1.7385322  -0.1176751  -0.2986340  -1.2171442   1.6658792
   0.0467157   0.1098907  -0.0894457  -0.0840466   0.2223468  -1.2548671
  -0.2985667   0.3547236  -0.7513602  -0.3820505  -0.1152987   0.0091886
  -0.0908290   1.0394746   0.1976126  -0.3724365  -0.9708829  -0.0100231
   0.2362009  -0.2797864  -0.4228338   0.7198429  -0.5494024   0.1844148
  -0.3994893  -1.2222020   0.3733277   0.1367614  -0.0055958   0.2209949
  -0.0801383  -0.1652246   0.2772648   0.0136774  -0.8542612  -0.0286340
   0.0265630   0.2926119  -0.0898922  -1.3012850  -0.0252792  -0.2226252
  -0.7174361   0.3645153  -0.3106864   0.1025702   0.0420330   0.3843661
   0.3289858   0.0259171   0.5333222   0.6431650   0.4249488   0.7820159
   0.2152976  -0.0022664  -0.0853076   0.5621693   0.3842356   0.4496949
  -0.3950444  -0.1090782   0.1284668  -0.1980830   0.1816302   0.3302056
  -0.5242202  -1.1562482  -0.6761394   1.1882890   0.4912436   0.0656076
   0.0832820  -0.2960085  -0.0625777  -0.3057928  -0.2203404   0.3081505
   0.8657574  -0.4843151  -1.1690083  -0.1831515  -0.2059451  -0.1603347
  -0.5135781   0.1274935  -0.0829837  -0.1960115   0.1425369   0.3000700
   0.1545833   0.1037141  -0.0216518   0.1452387   1.1028527   0.0631347
   0.4133650  -0.0707372   0.0851924  -0.1013365  -0.6170928  -0.1264502
  -0.4911957  -0.6859149   0.7068774   0.2772778   0.1871116  -0.0713840
  -0.3039779   0.1832685   0.3004659   0.2288758   0.3839395   0.0703854
  -0.7153481   0.2133050  -0.1825041  -0.4219772  -0.1467374  -0.0070117
  -0.0419613  -0.4779387   0.0945548   0.3456002  -0.0892130  -0.2184817
  -0.0938976   0.0480804  -0.3161498  -0.4371088   0.0411969  -0.4252944
  -0.0569887   0.4025279  -0.5656066  -0.3721647   0.2986225   0.0413386
   0.0452955  -0.3206463   0.5310321   0.5960194   0.1936173   0.5658167
   0.2102697   0.2357518   0.1916355   0.2880098  -0.9023377   1.3807251
  -0.8493051  -0.5554816  -0.1396142  -0.1710571   0.1375139   0.2755947
  -0.4060947  -0.3041543   0.0565004  -0.0092453   0.5883455  -0.3897392
  -0.2345623   0.0785429   0.1952665   0.1952336  -1.3516361   1.1842871
   0.6232616  -0.4239039  -1.0740239  -0.3491967  -0.0722873  -0.0716387
   0.4367117   0.6771628  -0.1489622  -1.0307295   0.2248145   1.0198668
   0.1285894  -0.2362803  -0.0641954  -0.4509811  -0.3176715   0.2957341
   0.6960207  -0.4773787   0.0171810  -0.1536816  -0.1233503  -0.0634681
  -0.2718034   0.1992567  -0.6865842   0.3954529   0.1095901   0.4544494
  -0.1291323  -0.2025893   0.3324947  -0.2208663  -0.5358046   0.8309975
   0.0698642  -0.5972798  -0.1486379   0.0958315  -0.0706210   0.0703022
   0.0261366  -0.3733812  -0.4499310  -0.0063039  -0.3681691  -0.5950206
  -0.0089939   0.2608411  -0.0372325  -0.1970893   0.0079211  -0.0878240
   0.7096979   0.8944824   0.1595823   0.4401727   0.1751811   0.1387772
   0.6395134   0.3603559  -0.0111782   0.6079293   0.3869978   0.4413573
  -0.1773973  -0.3514790   0.3952017   0.0219874  -0.0864582   0.5475163
  -1.3799892  -0.7573746  -0.1966292  -0.1143829  -0.3937566  -0.0976369
   1.5522787  -0.7209915   0.2444550   0.1048461   1.0648540  -0.8656501
  -0.2155855  -0.2298457   0.1042304  -0.3597158  -0.3022237   0.1653611
   0.1570741   0.1409717   0.5583054  -0.1932159  -0.0185683  -0.0187820
  -0.2396458  -0.1241005   0.1451716  -0.5945474   1.3960571  -0.5087106
  -0.1136522  -0.3224838   0.3065881   0.3446261   1.0701283  -1.1259329
  -0.1498448  -0.3377836   0.6640263   0.0886519   0.3137655   0.0285565
  -0.3447123  -0.2652691   0.3266268  -0.0620914   0.9746456   0.2065439
  -0.5070501   0.2145579  -0.0618138   0.1655492  -0.8648449   1.2732631
  -0.0285630   0.2285364  -0.7118122  -0.0838035  -0.1371060  -0.0991294
  -1.2213506   0.6377049  -0.6088795  -0.2693890   0.3042445  -0.1998416
  -0.0504121   0.0832913  -0.0771374   0.4995161  -0.7219099  -0.5381516
  -0.5067908   0.0705697   0.7011979  -0.0330745  -0.0447445  -0.1718656
   0.6906671   0.4805374   0.0612598   0.1332694   0.4480714  -0.1075098
   0.1997832   0.0295036  -0.0643955  -0.5080756  -0.3321961  -0.5251846
   0.8502164   1.5921082   0.6417797   0.1705911  -0.1363518   0.0570752
   0.7851779  -0.2579814  -0.1415654  -0.0706213  -0.2442398   0.2821044
   0.0028419   0.1400613   0.1025120  -0.4480455  -0.4887237   1.2512440
   0.0406780   0.0233287  -0.0656695  -0.0609661   0.0094588  -0.2474989
  -0.1535783  -0.1084496  -0.5040273  -0.0599263   0.2557252  -0.4053710
  -0.0290518  -0.1911568  -0.1900878  -0.4365165  -0.6492523  -0.6483020
   0.5487995  -0.3807968  -0.5040432   0.2244710   0.0747642  -0.2788969
   0.2049825   0.1748788   0.6588022   0.4306385   0.2637975   0.9445770
   0.2096532  -0.0172225   0.5392035   1.1715757  -0.9662217  -0.6386140
   0.9825449   0.7692883  -1.1980032  -0.3472729   0.1427575   0.0620033
   0.0596543   0.1339328   0.0950737  -0.5224588   0.1949557   0.4028881
  -0.0377440   0.1864934  -0.1484140  -0.4374723  -0.6214420  -0.1002828
   0.4892776   1.2035679   0.2863833   0.2308418   0.3108862  -0.0283464
   0.0903936   0.0512998  -1.9802132   1.1140861   0.2494762   1.1714886
  -0.1175067  -0.2168669   0.0059477  -0.5204303   0.0722168   0.0794531
  -0.3713098  -0.0520079   0.2452729  -0.1922675  -0.2099372   0.3556170
   0.7290396  -0.3497945  -1.1479234   0.5059037  -0.0822856  -0.9259167
  -0.0361516  -0.1015530  -0.2402247  -0.6682175   0.4330069  -0.2668210
  -0.0883813  -0.4617183   0.3986016  -0.3340356  -0.0627240   0.0120148
  -0.1964790  -0.8270792   0.8452954   0.7687781   0.1139750  -0.6408067
   0.1376257   0.2780354  -0.0468773   0.0761350   0.2615007  -0.2791906
  -0.0842939  -0.0527950  -1.1427951  -0.0637830  -0.0286297  -0.2346820
   1.3757029  -0.4752258  -0.9861339   0.4014556   0.1913469   1.1554925
  -0.2981821  -0.1525437  -0.0042398  -0.1539272   0.1356848   0.1532182
  -0.9041182  -0.7637164  -0.5060999  -0.0312189  -0.1260501   0.0909417
  -0.7202711   0.1944072  -1.6261596   1.1313337   0.1606352  -0.1236653
  -0.1549959   0.0045097   0.1585935   0.1940631   0.0611258  -0.2860257
  -0.6856878  -0.5859405   0.9479606  -0.0404840  -0.0602508   0.3376268
   0.0349186   0.3580871   0.0291921  -0.4347837  -0.6408577   0.4820505
  -0.1114290  -0.0244805  -0.0903387  -0.1240903   0.2353654   0.0798340
  -0.0041575  -1.4725147  -0.5770404  -0.0047081  -0.0852313  -0.2483199
  -0.1520632   0.0339691  -0.4591575  -0.0819837  -0.2265543   0.0572845
   0.0241600   0.0722760  -0.3372321   0.4396335  -0.3353515  -0.8620899
   0.1687755  -1.0508839  -0.2876890  -0.0906848   0.1087463   0.1596021
  -0.1648202   0.8583109   0.3337347   0.2993106   0.6314849  -0.3588897
  -0.2809245   0.2096481   0.0530946  -0.0694580   0.4936390  -0.2339339
  -0.5127669   0.1085338   0.3330175   0.3556854   0.1067387  -0.2939945
   0.4857965  -0.1425547  -0.1796816   0.0049727   0.1282595  -0.2404450
  -0.0654124   0.0167692   0.3130010   0.3485524   0.2893386   0.3387483
  -0.6420950  -0.3519772  -0.4540319   0.0598750  -0.2982545  -0.0487583
   0.7721147  -0.5344831   0.0766938  -0.6122915  -0.0330373  -0.4315676
   0.1051771  -0.3078708  -0.0571885   0.3162998   0.7575918  -0.6966976
  -0.7610377  -0.5730750  -0.1859319  -0.0624009  -0.0722277  -0.0824408
  -0.5291699   0.1139765  -0.8983229  -0.4342547   0.2398052   0.2018696
  -0.1631217  -0.1854563   0.0636922  -0.4306560  -0.2916156  -0.7464869
   0.4469060  -0.1008900  -0.2782766  -0.0288731  -0.1440791   0.1260935
   0.3746520   0.3183239  -0.3995148  -1.1280361  -0.3673805  -1.2194374
   0.0391768   0.0857623  -0.0920191  -0.0832734   0.0014728   0.2407842
   0.0321011  -0.0156235  -0.2442321  -0.0769428  -0.0487388   0.2349113
   0.0773968  -0.0225755   0.5507298   0.1388501  -0.3235062   0.6861994
  -0.0907642   0.1106423  -0.0211932   0.4542170   0.2661106  -0.4765815
   0.8595307   0.7639653  -0.0816143  -0.0093020  -0.3105075   0.1422061
   0.0272604  -0.6153917  -0.3046200  -0.6931567  -0.2854733  -0.1540163
   0.0245645  -0.0445734   0.0075319   0.2196418  -0.4543229   0.1973952
   0.0205786  -0.0792044  -0.3204722  -0.1225883  -0.1137399   0.0789822
  -0.3991249   0.4227017  -0.6127966   0.5403013   0.1154422   0.1845025
  -0.2565555   0.1506905  -0.0979117   0.2810973  -0.2180217   0.7237702
   0.2875097   0.4055012   0.3109232   0.1064937  -0.1014581   0.0123816
  -0.4797727  -0.6966146  -1.6755374   0.0731611  -0.9972797  -0.0390357
   0.3685868  -0.1186112  -0.2083877  -0.1508534   0.2565683  -0.8552519
   1.1542234  -0.3303205   0.0806761   0.0575035   0.1874249   0.2713333
   0.4106680   0.0450745   0.1864679   0.0620119   0.0678646   0.2537080
  -0.1462377   0.4329870   0.1369068   0.4304913   0.5515366   0.8700812
   0.9542979  -0.5744479   0.8719094   0.1173311  -0.1501162  -0.1866185
   0.3385285   0.2696612  -0.2564976   0.0159909  -0.3057643  -0.0075639
   0.2084355  -0.0519862  -0.1105596  -0.1919902  -0.4006017   0.6780695
  -0.0945356  -0.5622670  -0.7695865   0.0782844   0.2987221  -0.1009424
  -0.3648770   0.2546188  -0.3013145  -0.0907808   0.4797827   0.4067274
  -0.1613359   0.1846191   0.0592744  -0.2616848  -0.6133213   0.4405887
  -0.2468616   0.6560139  -0.0512001   0.3502383   0.0260550   0.0234411
   0.3045625  -0.1323425   0.0185973  -0.4649580  -0.7888902   0.2697511
   0.2035000  -0.1107676   0.3104437   0.2708218   0.2875468   0.4839132
   0.4930100   0.0396458  -0.0338888   0.1050471  -0.2220272   0.2967672
   0.5374992  -0.2861527   0.4159756  -0.3784030  -0.2106568   1.0300605
  -0.0740233   0.2479031   0.1621280   0.0531356  -0.7772385  -0.0200805
  -0.1335725   0.8308110  -0.6744226  -0.1415236   0.1716426   0.0986661
   0.2635572   0.6457832  -0.2247573  -0.2669968  -0.4891002  -0.8426686
   0.0380167   0.0028212   0.1693895   0.4075027  -0.7129578  -0.5355222
  -0.7125067   0.1601571  -0.0041857  -0.2597013   0.0098727  -0.4066930
   0.2355802   0.6026841  -0.3587198   0.2804177   0.6238251  -0.3301235
   0.1824617  -0.0005916  -0.2486032   0.2681236   0.1195855  -0.3379469
  -0.0998826  -0.2538630   0.0855104  -0.4069450   0.0431288   0.1885564
  -0.1417952  -0.1804225   0.1927157   0.2992770  -0.2114173   0.3162263
   0.1053764  -0.1573958   0.3894635   0.3245325   0.0713366   0.1276458
   0.0665187   0.8711021  -0.3992546   0.1407841  -0.1232577  -0.0628008
  -1.3750263  -0.4773422   0.4386217  -0.1475268   1.0961601  -0.2411550
   0.0240912   0.2682110   0.0344573  -0.3895298  -0.0212392   0.4121377
  -0.8358881   0.2905200  -0.9907199  -0.1899873  -0.2389716  -0.0280813
   0.2205115  -0.0182323   0.3416928  -0.5178203  -0.1177909  -0.1197259
  -0.1058373   0.0251643  -0.1926005  -0.8227296  -0.5200650  -0.9436013
   0.9003990   0.5229314   0.8069683   0.0438964   0.1124929   0.2734437
  -0.0525347  -0.2977946  -0.1316990   0.4285574   0.0952448   0.2527373
  -0.3219120  -0.3655877  -0.2329267  -0.7475143  -0.5709723  -0.5672518
   0.7398654   0.1416954   0.7619483  -0.1535186  -0.2249077   0.0255714
   0.1836244  -0.7203482   0.1021929   0.7721317  -0.1932810  -0.4239150
  -0.0672463  -0.0812716  -0.3754996  -0.5485491  -0.1874427  -0.4596221
   0.8572864   0.1713494  -0.2705404   0.1796430   0.3546033  -0.0225495
  -1.0429972  -0.4161966   0.3843005  -0.5534179  -0.4209731  -0.7424110
  -0.0048815  -0.3054528   0.0034284  -0.6506416   0.1714913   0.0341508
   1.0186255  -0.2122350   0.2414244   0.0465163  -0.0781769   0.2080994
  -1.0739304  -0.6867538  -1.0327060   0.4434529  -0.3052137   0.1610654
   0.1038623  -0.2444528   0.1507786   0.2771085   0.1240126   1.4002719
  -0.9720318  -0.2621234   0.1462093  -0.1153152   0.2331758  -0.2992729
   0.3182872   1.1703258  -0.5854111  -0.0424613   0.7878192  -0.4741873
  -0.0276915   0.3648973   0.1050683  -0.8000836   0.1672358  -0.3627204
   0.4452061   0.5004071  -0.6401952  -0.0689714   0.0765939   0.0847304
  -0.0983898   0.0218866   0.3539670   0.0082543  -0.2125800   0.9548645
   0.0297065   0.0299698   0.1107707  -0.8103076  -0.1732820  -0.8571500
   1.0296056   0.4448948   0.6872839  -0.0918290  -0.2826368   0.1041189
  -0.3281602   0.3187017  -0.0792598   0.1570847   0.1761572  -0.2676665
   0.3337624   0.0961935   0.2148535   0.1760461   0.2686068   0.2973020
   0.4664166   0.0592742   0.0146843   0.0986363  -0.0783105  -0.1433971
  -0.4382459   0.7571744  -0.1424116  -0.2108030  -0.2355906   0.0861566
   0.1832002  -0.1056569  -0.0516582  -1.5415241   1.2180832   0.0632789
  -0.2030012  -0.2540860  -0.2832891   0.1398300  -0.1736067  -0.0088771
  -0.5196364  -0.1227128  -0.4333850   0.6406187   0.0616476  -0.5147601
  -0.0977458  -0.1687902  -0.2369310   0.4098978  -1.2271243  -0.4092387
   0.3533922  -0.7870215  -0.1769030   0.1624321  -0.3146693   0.1911579
   0.3405085  -0.1526065   0.2085953  -0.1872338  -0.3100696   0.2916650
   0.0719508   0.0520532  -0.0279237  -0.4114486   1.6806008  -0.1071212
   1.0328446   1.2466030  -0.0506887  -0.1922111  -0.0857391  -0.1033692
  -0.2866580  -0.5392627  -0.0767099  -0.4056617  -0.4371950   0.4915106
  -0.1118768   0.2865061  -0.1433178   0.2758395   0.7248663  -0.1388760
  -0.2439123   0.0967841  -0.4030978   0.1112510  -0.1056068   0.1155111
   0.4090214   0.0371988   0.3968372  -0.0742800  -0.3402021   0.0111334
   0.1161204  -0.1149725   0.0504452   0.2160916  -0.2555102   0.1332370
   0.7531320  -1.4502482   0.3695756  -0.0219862  -0.1978937  -0.4269632
  -0.4173045  -0.1834079   0.0526956   0.3332668   0.1316722  -0.5227346
  -0.0194433   0.0821521   0.1981454  -0.0944797   0.2290509   0.1049102
   0.3881482  -0.0693501   0.5487529  -0.2600398  -0.0160802   0.2562389
   0.1684445   0.2633489  -0.5313478  -1.4891127   0.2644469  -0.0932957
  -0.4569852   0.2171815   0.1400960   0.2814727   1.2043554   1.7031316
  -0.6418016  -0.4529746   0.4217607   0.1362643   0.1079825  -0.1830501
  -0.7808290   0.8655892   0.1227678   0.6977863  -0.4450511  -1.4178236
  -0.0050101  -0.3201091   0.0586342  -0.3009811   0.2056583  -0.9282920
  -1.0078076  -0.1487394  -0.3622398   0.1371044  -0.2423613   0.1738535
  -0.0328873  -0.0736203   0.0974257   0.1615292  -0.1751858   0.4167610
  -0.0383312   0.0587112  -0.0310448  -0.3544815   0.5321097  -0.5651156
  -0.4434059  -0.8023238  -0.2563632  -0.2803644  -0.4740332   0.1318064
   0.1778847  -1.1443480  -0.3459109  -0.2662278  -0.2988932  -0.0630691
   0.1593381  -0.1628776   0.0955380  -0.2085740   0.5743797   0.1358765
   0.4896007   0.3931450  -1.0467368   0.3543339  -0.1456477   0.1734258
   0.3485765  -0.1768227   0.1944428   0.1247901  -0.4979534   0.6806513
   0.0556997   0.2137451  -0.2445156   0.1685722  -0.4324623  -0.3230567
   0.3211507   0.3174814  -1.0862603  -0.1655368  -0.1435620  -0.2475925
   0.2960531  -0.4049562  -0.0023405  -0.4035010  -0.1603277  -0.0117609
   0.1536431   0.0184697  -0.0677225  -0.2026868  -0.6620858   0.1006997
  -0.4119563   0.3910530  -0.2020764   0.2003484   0.2232342  -0.0965182
   0.0606106  -0.8392002  -0.5022714   0.6169186   0.5342280  -0.1310422
   0.1351755  -0.3753251  -0.2511431   0.2829237  -0.7036596  -0.8535877
   0.8348301  -0.5924334   0.7057991   0.0289436   0.2940935   0.1758034
   0.3962690  -0.9887815   0.6162549  -1.1693428   0.4832622   0.4663082
  -0.1565184   0.2462469   0.0687532   0.2544453   0.1636745  -0.2983303
  -0.9087078   0.2892475   0.7631154   0.3614177   0.0615873   0.0238148
  -0.3239517  -0.2492205   0.7663175   0.1877582  -0.0751110   0.1193305
   0.0922028   0.1567331   0.0305367   0.8442861   0.4280052  -0.9844718
  -0.1213957   0.0632415   0.3914846  -0.0077107  -0.0126519  -0.2030440
  -0.9719960  -0.0970828   0.2683493   0.8307695  -1.2620205  -0.6906725
  -0.0597626   0.0755302   0.1007581  -0.2906351   0.8914438   0.6555294
  -0.3082121  -0.7153758  -1.4071480   0.0365500  -0.1139164   0.0769040
   0.2206060  -0.0133490  -0.1161490  -0.0489114   0.1110249   0.2333080
  -0.1367601   0.1854406   0.1353022   0.7377056  -0.6740480  -0.1195349
  -0.4230872  -0.1053558   0.2451937   0.1432753  -0.2995719   0.1018749
   0.3747090  -0.3107350   0.2008714   0.0584224   0.1202905  -0.9261075
  -0.1680780   0.0615865   0.0916031  -0.5630217   0.2695400  -0.1205539
  -0.7677313   0.4542394  -0.3103993  -0.2636160   0.0744369   0.3883566
   0.0896100   0.0118025   0.0442477  -0.2584361   0.0343592  -0.0336954
   0.0271172   0.2602389   0.1842222   0.1587824   0.6996854  -1.4926454
  -0.1641756   0.1153226   1.5516860   0.0822240  -0.2975768   0.1500288
  -0.0958193  -0.3195388  -0.3816174  -0.0171923  -0.2842107  -0.0707208
  -0.3442815   0.1607438  -0.2775893  -0.2145443   0.4640646   0.1858639
  -0.5121325  -0.0182514  -1.2192359  -0.1817604   0.1786678  -0.2412394
   0.1759205   0.1316550  -0.2951511   0.5746308   0.1451145  -0.3216686
   0.1234812  -0.0420238   0.2247603  -0.2827007   0.3967569  -0.8590299
   0.8922568   1.4553937   1.7977848  -0.3059782  -0.1220612   0.0906382
  -1.7567010  -0.4933021  -0.0854838  -0.5714222   1.2026850   0.8346174
   0.1318059  -0.2241558  -0.0865782  -0.1784586  -0.6232044   0.2744327
   0.2283266  -0.9151590   0.0711365   0.0242592   0.3122063   0.1088826
  -0.2037074   0.3110735   0.1460277   0.0373678   0.3321567  -0.2347682
   0.0870034  -0.0349324   0.0803371   0.1632238   0.2309384  -0.5152154
   0.5291764   0.4566317   0.0651060  -0.2196287   0.1099013   0.1848246
  -0.0856967   0.7787309   0.3305098  -0.2910005  -0.0192313   0.2186590
  -0.1496177   0.2372859   0.1266140   0.2928681  -0.2367628   0.4794855
  -0.1217081   0.9271307  -0.0237435   0.0629538  -0.0889874  -0.3620637
  -0.5841785   0.3559076  -0.9091734   0.4407521   0.6030333   0.4476273
  -0.2722588   0.1036292   0.0383066   0.0674204   0.3419743   0.1840868
  -0.2867957   0.0672614  -0.4489085   0.0043458  -0.0375393   0.0178161
   0.2664145   1.0949952   0.8556961  -0.2205345  -0.3022396  -0.4781216
  -0.2670988  -0.1291152   0.1200790  -0.0978744   0.1047708   0.4085275
   0.2532957   0.2334543   0.1371566   0.0392037   0.0585543   0.0773559
   0.3415397  -0.6684927   0.3499455  -0.2005015   0.0082576  -0.6534911
  -0.1380114  -0.1572597   0.0289373   1.1548240  -0.7284701   0.2359387
  -1.1916994  -0.2032542   0.1679478   0.1621920  -0.2881527   0.2038764
   0.2374930   0.1036819   0.5739116  -0.2043269  -0.7552450  -1.0735764
   0.2967896  -0.1747040  -0.2593670   0.0201716   0.5923621  -1.2496795
   0.2234336  -0.1431063  -0.4673062   0.2199743   0.1567017   0.1010511
   0.1174922   0.2394330  -0.1534379   0.3266816   0.2194149   0.6143989
  -0.0761322   0.3009031   0.0075097  -0.0116879  -0.4904784   0.5956140
  -0.1061085   1.1729527  -0.7101009   0.3511269   0.1248588  -0.3216103
   0.1808893   0.4648189   0.3005646   0.6609428  -1.7296474  -1.1004934
   0.1574090  -0.2050749  -0.0088191   0.4831224  -0.7772891  -0.2501301
   0.0164415   0.0985727   0.2489856  -0.1115173   0.0088619   0.0614437
   1.1142691  -0.5084426   1.0854652  -1.4412995   0.6572567  -1.0094220
   0.2249135  -0.2130492  -0.1047813  -0.7842304   0.3629169   0.6096962
   0.0160480  -0.0444945   0.1996375   0.1288785  -0.0589955  -0.0878996
  -0.1071972   0.1666477   0.7620967  -1.1638062  -0.0444262  -0.0033572
  -0.1350834  -0.0154672  -0.0859131  -0.2730949   0.1610487   0.6415016
  -0.2678476  -0.2270361  -0.0899013  -0.1568366   0.1264206  -0.1375522
   0.1469749   0.4448243   0.7161362  -1.3043285  -0.0947899   0.1447946
   0.1145183   0.0213253   0.3178010  -0.0910930  -0.4242013   0.1204639
  -0.2443076  -0.7263884   0.2697179   0.1991546   0.1667057  -0.1575862
  -0.1035472  -0.5829284  -0.4297170   0.7445656   0.6964628   1.0516085
  -0.0296299   0.0250273   0.1370195  -0.0577971  -0.0710945   0.1600587
  -0.1052962  -0.3534715   0.0921316  -0.0659587   0.0821438   0.0765854
   0.4750318   0.4330254  -0.6206408   0.4419460   0.1524295   0.0465402
   0.0288606  -0.0659745   0.1408006   0.2848542  -0.3090146  -0.0724309
   0.5754843  -0.0359348   0.0497984  -0.2494641   0.0631792  -0.0491261
   0.1730186   0.0030314   0.3554080  -0.7783707  -0.0541718   0.2860195
   0.0879435  -0.1606776   0.3839699  -0.8756746  -0.0667165   0.5060691
   0.1638908  -0.2367418   0.3375235   0.1917601   0.0778661  -0.2422787
   0.2550345   0.4612715  -0.6174703   0.7458714  -0.8037040   0.1752341
   0.1733149  -0.2084279  -0.0297063   0.3861860  -0.1181019  -0.8850848
   0.8125805  -0.2522829   0.2130197   0.0301085  -0.0812001   0.3043617
   0.2677162  -0.4134899   0.3680543   0.2001781  -0.2527489   0.3079457
   0.1527703   0.1881182  -0.4670672   0.3009699  -0.0303487  -0.3864841
   0.4247424  -0.4750837  -0.1642501   0.1141713   0.0169143   0.0491567
  -1.1514635  -0.2094371   0.1049959  -0.2089021  -0.0316458   0.0718155
   0.0963115   0.3429947   0.1314917   0.3391626   0.7148361  -0.3868959
   0.3868444  -0.1771163   0.1436186  -0.1179564   0.3081311  -0.1286691
   0.7399410   0.7764182  -0.8085304  -0.3546120  -0.1459578   0.5854679
   0.1362471   0.0065632  -0.3633579  -0.6182198   0.6208758  -0.0490135
  -0.2339241   0.5380622   0.7171081   0.1555702  -0.1871243   0.1692574
   0.2500357   0.8377595  -0.9468498   0.8298598  -0.0285348  -0.1925716
   0.0260438  -0.2825000  -0.1037649   1.0974248   0.9811944   0.7450516
   0.5239498  -0.1258385   0.0129463   0.0493271   0.1541205   0.2454201
   0.0072260   0.5958155   0.0954238  -0.9866682   1.4809850  -0.3745602
  -0.0647930  -0.2436867   0.1377035   1.1198783  -0.2703874  -0.2770578
  -2.0330811   0.7326133  -0.0357891  -0.2220113  -0.2764447  -0.3281284
   0.3333291  -0.6845810  -0.7515495  -0.5502161   0.6634539  -0.5755578
  -0.1201489  -0.0078070  -0.1278608  -0.2523512  -0.1168905  -0.2166210
  -1.0977575  -0.2219298  -1.0354636  -0.0266424  -0.3705668   0.1219281
   0.1677592  -0.6105998   0.6585496  -0.4098126  -0.9615674   0.3396357
   0.0297378   0.1395494  -0.1452633   0.1732321  -0.3462599  -0.0706598
   0.0257979   0.3705768   0.0320630  -0.0349285   0.1178452  -0.2216070
  -0.1351801   0.0852137  -0.3250628  -0.0777942  -0.2055606  -0.2056542
   0.1239491   0.0244729   0.2601734  -0.0647903   0.6222914   0.4147729
  -0.9110338   0.4784350  -0.2746989   0.0833810   0.1634750   0.2136026
   0.0192324  -0.1675867   0.4224122  -0.0855370   0.5422764  -0.4341572
  -0.0096677  -0.0201717  -0.1373066   1.0920479   0.2300444  -0.2814012
  -1.1593673  -0.1329932  -0.4209137  -0.3920860   0.1168011  -0.0272750
   1.2147128  -0.1952866  -0.1747622   0.2562367  -0.3296089  -0.1023738
  -0.2101048  -0.0174242  -0.0973767  -0.2193971  -0.3110927  -0.3506404
  -0.4170088  -0.3174182   0.8838673   0.0219068   0.0191456   0.3353037
   0.2940480   0.0254560   0.1573343   0.2294454   0.0549443   0.1990254
   0.3933978  -0.1213746   0.3117809   0.2241549  -0.1861956   0.2108618
   0.5921567  -0.1274782   0.2160816   0.0882231  -0.1364764   0.3236524
   0.1801997  -0.1545305   0.0214046  -1.4773645   0.0886467   1.0817067
  -0.1303362  -0.0349126  -0.0680679   0.1673384  -0.6372512  -0.0279087
   0.2760211  -0.6549091  -1.6073015   0.0626670   0.2287697  -0.0389475
  -0.4561807  -0.7985697  -0.0811237  -0.3173860   0.6179116   0.6917297
  -0.3661762  -0.0468797  -0.1624687  -1.1464710  -0.0002583  -0.4154601
  -0.5543598   0.4735802  -0.3030080   0.2299906   0.2250455  -0.0158430
  -0.1075602   0.0239688   0.3163935   0.3494336  -0.2223504   1.1389483
   0.3709214  -0.1374495   0.0404978  -0.1355631   0.3063506  -0.9937259
  -0.2849008  -0.3520361   0.1518352   0.1588967  -0.3045422   0.0950564
   0.3073156  -0.3248918   0.2390880  -1.0652245  -0.5166718   0.6147609
   0.2195685  -0.1740871   0.2645575   0.9599388   0.5864596   0.0771366
  -0.0515531   0.3231420   0.9216962  -0.1214356   0.2238413   0.0696676
  -0.6953094  -0.3769705   1.0802906  -0.8500098  -0.5847577   0.0731160
   0.0229953  -0.0004272   0.2403531   0.0861787   0.2942540  -0.3489562
  -0.2611451  -0.1256949   0.4663376  -0.2184376   0.4181805  -0.0775855
  -0.1993429   0.7598779  -0.8613160  -0.5684113   0.7406790  -0.0036984
   0.4193504   0.5159526  -0.3514778  -0.5636017   0.1798321   0.3552931
  -0.6607865   0.0645505  -0.6404637   0.1043478   0.1290697   0.0077026
  -0.5844498   0.3108163  -0.6343647   0.2861430   0.3411595  -0.3979156
   0.0123335   0.0582268  -0.1794366   0.5480438  -1.0220515   0.3033348
   0.1260007   0.3153818   0.5262225  -0.0642713   0.0727502  -0.1122829
   0.6934141   0.2191187   0.7893205  -0.0810900   0.2898568  -0.5727258
  -0.1374112   0.1568103   0.1776985  -0.4971717   0.6739502  -0.9309549
  -0.1617708   0.3953986   0.2580910   0.0812369  -0.0523798  -0.0795174
  -0.4160953  -0.4912801   0.0580262   0.5738329   0.3684837  -0.1721537
  -0.1579191   0.3487145   0.4340853  -0.1455308   0.3384048  -0.0172395
  -0.3230925   0.0489370   0.5978249   0.0621774   0.0230420  -0.0192591
   0.6683427  -0.2674034   1.4673774  -0.6179623   0.3885396  -1.7198899
  -0.1324296   0.1841482  -0.1142619   1.4589662  -0.5523698   0.3321526
   1.0233595  -0.5346904  -0.4200199   0.0856358  -0.1895287  -0.2256995
   1.1037526   0.8580766   0.0077141   0.1297523   0.9341965   1.0923145
  -0.0034557   0.0774237   0.0311436   0.0541466   0.1907208  -0.0906581
  -0.2207761   0.0250298   0.4435792  -0.0803156   0.0823850   0.2450165
   0.7716615  -0.0235872   0.8615985   0.1987531   0.2694919  -0.7414924
   0.3071415  -0.0638077   0.3100298   0.5536181  -0.0773881   0.1961671
   0.0530243  -0.2809589   1.0596164   0.3423615  -0.2756516  -0.0174754
  -0.2047570   0.0470937  -0.4677961   0.0212482  -0.7218218   0.0423369
  -0.0030664  -0.0428347   0.2227611  -0.7346286   0.3403464   0.8129158
   0.1469573   0.0210513   0.0151008  -0.0520585   0.4832034  -0.0089827
   0.8695999   0.9003239   0.3611820   0.2972693  -0.1562137  -0.7948594
   0.2585862  -0.0978821   0.2782609  -0.2225710  -0.0095878   0.0604123
  -0.6958324   0.2647006  -0.0844072  -0.1647763  -0.3970887   0.0561381
  -0.8943278   0.7172169  -1.1260183  -0.4176089  -0.9060058   0.4957591
  -0.0629403  -0.1773347   0.2959799  -0.3219977  -0.0507806  -0.0884942
  -0.0494655  -0.1827044   0.2891018   0.0250552  -0.1207201   0.2701603
   0.6132368  -0.6322203  -0.7600656   1.9588015  -0.1492750  -1.5789613
  -0.1702857   0.3342779   0.1055361   0.1113837   0.4765656   0.6079695
  -0.5407925   0.1549661  -0.5628061  -0.3013177   0.0393598  -0.2420867
  -0.0335670  -0.2280522  -0.3613508  -0.1181435   0.3671502  -0.4151579
   0.0983772  -0.1479083   0.0532221  -0.4442055  -0.7353592  -0.5005068
  -0.1705645   0.6044988   0.1514697   0.1950801   0.0167994   0.0592330
   0.0490457   0.3352170  -0.3068046   0.2801056  -0.0845093   0.1440357
   0.2546277   0.3032708  -0.1293865  -1.0147504  -0.7889721   1.0172678
  -0.8583607  -0.6352981   0.3798799   0.2709430   0.0955475  -0.0345420
  -0.3922175   0.4269368  -0.1429522  -0.3949432   0.2169289   0.7811017
   0.0213450   0.0218633   0.0587605   0.5137421   0.3296147  -0.3197421
  -0.4835621   0.3721804   0.4252785   0.1341763   0.1128925   0.0430238
   0.1972923   0.3283659   0.0644495   0.3290049  -0.4937691  -0.0540624
   0.1405777  -0.2752164  -0.2755157  -0.0610264   0.2636730  -0.4153930
  -0.0425884  -0.6822938   0.1369988  -0.1682902   0.0085139  -0.0135272
  -0.4291915   0.2652477   0.4908582  -0.7419108  -0.2915096   0.7304492
  -0.0711479  -0.2833073  -0.2079999  -0.9750239  -0.5136293  -0.2178552
   0.4402449  -0.3033855   0.4069487   0.0578564   0.1470731  -0.0037558
  -0.0827722   0.4821432   0.1863610   0.1193700   0.4540754   0.1346469
   0.1288282  -0.2476090   0.0720079  -0.3002631  -0.7150395   0.2727497
  -1.2075943   1.3530059   1.5959180   0.2541972  -0.1006242   0.0227270
  -0.1130765  -0.8559328   0.1024889   0.0040654   0.8493247   0.1836766
   0.2335136  -0.1870722  -0.0169110   0.3603123   0.0134050   1.1651584
   0.6255559   0.1311125  -0.5971929   0.0687486  -0.0153227   0.0727914
   0.0323661  -0.3312667  -0.4869227   0.2521452   0.0536208  -0.5395320
   0.1909983   0.1384385  -0.0989932   1.5237008   1.2471517  -0.7954303
  -0.0089381  -0.4719661  -0.3325180   0.1759808   0.1652194  -0.0129971
   0.7139381   0.8173707   0.2324643   0.9809538  -0.4912026   0.4954646
  -0.0778578  -0.1787135   0.0619456   0.4687600  -0.4175388  -0.0513467
  -0.4282337  -0.1407844  -0.2416549  -0.0156555   0.0978883   0.0444261
   0.0059509  -1.2668616  -0.3697864  -0.0169443   0.5436798   0.2198717
   0.3208950  -0.0365537  -0.0952309   0.5254725   0.0043009  -0.2353414
  -0.6415115  -0.1658339   0.5938777  -0.1562628   0.1383726   0.0453704
   0.5493642   0.2271762   0.0532988  -0.2551301   0.2119541   0.0297534
   0.0154041  -0.1908584  -0.2258412   0.2689128  -0.6471728  -0.3197710
  -0.6030860   2.2004928  -0.4076594   0.0808509   0.1136219   0.1376951
   2.1663039  -0.3244297   0.8475469   0.5026077  -0.1493743  -0.8163905
  -0.0859887  -0.0961273   0.1615863   0.8032994  -0.0353625  -0.2398604
  -0.0688302   0.6198294   0.4600049  -0.4412705   0.0178994  -0.0281016
  -0.6686872   0.4348417   0.0230129  -0.5296365   1.1608006   0.0158076
   0.4040592  -0.1388140   0.1411832  -1.4547432   1.7199091  -0.2277733
   1.2712616   0.6870376   0.6727225   0.0158851  -0.1780471   0.2161566
  -0.2138991  -0.3341667   0.6444111  -0.8138245   0.0194686   0.4917458
   0.1391715  -0.1379169  -0.0056900   0.3401643  -0.4255042   0.4123676
   0.0998237   0.3694380   0.2103084  -0.0674122   0.3398794  -0.2547235
  -0.0878676  -0.6028280  -0.7378911   0.2382764   0.5397205   0.5128444
  -0.1388276  -0.3871287   0.2967513  -0.6435863   0.6882226  -0.9036075
   0.8909299  -1.4762689  -0.5035962  -0.1001939  -0.1390872  -0.0298981
   0.1737319  -0.1988850  -1.5911053   0.1597616   0.1437230  -1.3050836
   0.0686581  -0.1994762  -0.0642421  -0.2097711   0.4912924   0.2854145
   0.0490423  -0.9927014   0.0411804  -0.1117607  -0.1499092  -0.2136358
   0.4409127  -0.1993972   0.7810022  -0.7808717  -1.2908076   0.0031806
  -0.4016897  -0.0345041   0.3349236  -0.5792526  -0.1447559   0.7719763
   0.9733253  -0.9450380  -0.7666811  -0.0464551  -0.3074215   0.0338922
   0.4895818  -0.3377797   0.3219987  -0.2283278  -0.1943598  -0.2934491
   0.1152743   0.2942203   0.1380814   0.8386003   0.8119369   0.1028521
   1.1126748   0.1813839   0.5442810   0.0183752   0.2332022  -0.3844084
  -0.2426105  -0.2430480   0.7397223   0.3045535   0.6773079  -0.4791265
  -0.2230032   0.3147234   0.0664773  -0.8340659   0.0722188  -0.0142250
   0.6022253   0.3909438   0.2682758   0.1000999   0.3685978  -0.1101568
   0.2457807   0.2709894  -0.1959029   0.2380786  -0.1864339   0.8517330
   0.2219224   0.3027956  -0.0227332   0.3403099  -0.3316643   0.5172368
   0.4093534  -0.6851985  -0.3206865  -0.0838190   0.0364034  -0.1871093
   1.5056848  -0.0262461   0.8865002   0.5232394   0.6196343   0.9663495
   0.1428708   0.0021658   0.0392406  -0.1785102   0.5518289   0.2789811
  -1.5076428  -0.2532963   0.5196109  -0.0111885   0.0020293   0.0110958
   0.5502268   0.2852543  -0.2057155   0.6089093   0.4414488  -0.1416927
   0.1208419  -0.0269889   0.3254629   0.8530084  -0.4287665  -0.1991815
  -1.0126360   0.1743378   0.8308708  -0.3342940   0.3110610   0.0384836
  -0.1405716  -0.3618096   0.3989650  -0.3394946   0.3297549   0.0721178
  -0.0076456   0.1319128   0.1327899   1.1626011   0.1284989   0.4598898
  -0.6554178   0.1731242  -0.2017476   0.4759882  -0.2746084   0.1592528
   0.5343740  -0.7230491   0.4031551   0.3908769  -0.5356525  -0.0158402
  -0.1149707   0.2442787   0.1979133   0.2498119   0.6671277  -0.3903173
   0.0095218   0.0380957   0.0859666  -0.1672054   0.0983624  -0.2379335
   0.0301305  -0.3950929  -0.0303926  -0.3014430   0.0908378  -0.1589573
  -0.0330934  -0.1353894   0.1150256  -0.2126384  -1.0486537  -0.3611244
  -0.2104680  -0.1806200   0.3335649  -0.0869706  -0.1398835  -0.1657923
   0.0860273   0.1037647   1.6241208   0.0740612   0.0868875   1.4898333
  -0.1874747   0.0596463   0.0293899  -0.1485415   0.1202209   0.0095853
  -0.2383448  -0.1587370  -0.3770140   0.0808366   0.2287358   0.3220869
  -0.3188352  -0.1216648   0.4364664   0.1437742   0.1998865   0.3280575
  -0.2038368   0.0258407  -0.0191156   0.3339213   1.6399485   0.3812202
  -0.4945242  -0.8309083  -0.3813634  -0.4675460   0.1028683  -0.1039804
  -0.5585840   0.2950770  -0.4842300  -0.9937314   0.4563606   0.3270266
   0.0726270   0.2107127   0.1077253   0.0207902   0.0259382  -0.2454048
   0.2669695   0.7187336   0.0207859  -0.0235214   0.0605393  -0.2587553
   0.3339012  -0.5715905  -0.4238644  -0.2657177   0.1705741  -0.4260356
   0.1433805   0.3111125   0.1103921   0.3302689   0.2093558   0.1708057
  -0.0183900  -0.8388090   0.6963949  -0.0705615  -0.1474812   0.0398823
  -0.1063794  -0.0821375  -0.1245314  -0.0315322  -0.2081257   0.0611212
  -0.0068170   0.1000161  -0.1314830   0.1490990  -0.1540047  -0.2440797
  -0.0683191   0.2306471   0.3436951   0.0127745   0.0583571  -0.3007257
  -0.5821917   0.5050495  -0.5726228  -0.4504394   1.0340119  -0.7985427
   0.0294774   0.1743428  -0.2204599  -0.9871252  -0.0372008  -0.0481204
   0.3850177   0.6469758  -0.0813575  -0.2826800  -0.1722129  -0.1326504
  -0.3547171   0.5091930  -0.3673979   0.5820106  -0.7296862   0.3850294
  -0.1141565   0.2589398  -0.1206440  -0.7097536  -0.8100719   0.1055401
   0.7346099  -0.5783236   0.2067959  -0.0820229   0.3617370  -0.1286837
   0.5182811   0.2302554  -0.7045510  -0.1437765  -0.7004232   0.3692924
   0.1654476   0.0544397  -0.1527392   0.4153927   1.6277562  -0.1707217
  -0.0151761  -0.9267120  -0.3519867   0.0171101  -0.0580861  -0.1776842
   0.0591529   0.1421137  -0.4141455  -0.2488836  -0.0758313  -0.1329399
   0.2210339   0.0635537  -0.2415673   0.3355136  -0.3571794  -0.0065585
  -0.4033830   0.1950434  -0.5737962   0.2873433  -0.1894938  -0.1387033
  -0.2990234   0.7524326   0.9499434   0.2395838  -0.1409605   0.0817154
   0.0287790   0.3296594   0.0009460   0.4159137   0.8325989  -0.2873492
   0.1909634   0.2025028  -0.0185619  -0.2630643   0.0175467   0.0185150
  -0.5281062   0.5120907  -0.0860516  -0.0744592  -0.3561782  -0.3671995
   0.1960584  -0.3990102  -0.2118605  -0.2143252  -0.0488296  -0.4670113
   0.6921377  -0.1506541  -0.2763953   0.1324916   0.2047488  -0.0680641
   0.2966162   0.2396059  -0.8950214   0.7487194   1.0270140  -0.0453549
  -0.1051916   0.0765138  -0.0699505  -1.0405221  -0.0081790  -0.6914340
   0.2608680   0.1389701  -0.0485597  -0.1158540  -0.2521695   0.0238176
   0.0677051  -0.6056983  -0.3361958  -0.1512099  -0.3225027   0.5156940
   0.0814175  -0.0005270   0.1123960   0.0363645  -0.0433031   0.0671161
  -0.0717144   0.1177827   0.4663532   0.0611126  -0.1271566  -0.3644644
   0.4129154  -1.4144272  -0.9515681  -0.9095792  -0.0826122   0.1821773
  -0.2540253  -0.1915213   0.1486168  -0.7490788   0.1094374   0.3028751
  -0.1095700  -0.6925471  -0.2279108  -0.2761294   0.1623288   0.3378799
  -0.9832931   0.4015366   0.2158659  -0.9553488  -0.1907135   0.7835246
   0.1378373  -0.3779709   0.1636411  -0.4279573  -0.3179922   0.7558118
   0.1189983   0.1557306  -0.2113058   0.1464110  -0.1818515  -0.3722578
   1.2268817  -0.3577646   0.0890619   0.9311442  -0.3000696  -0.0364073
  -0.1112974   0.1411901   0.0204236   0.5214502   0.4284513   0.7199600
  -0.7092841   0.0400834   0.3555486   0.0961468  -0.1397449  -0.2043997
  -0.4396357   0.0562826   0.3770308  -0.5140325  -0.3110557   0.3524623
   0.0075944  -0.0387880  -0.2552417  -0.0967047  -0.3181221   0.4939247
  -0.0509423  -0.0923690  -0.1192178   0.1262685  -0.1049949   0.1759885
   0.5338074  -0.1302818   0.0201762  -0.7774716   0.0732906   0.8268259
   0.0219047  -0.2796831  -0.0262254   0.5660135  -0.0974903   0.2112289
   0.1507309  -0.6827905  -0.5171217   0.0885753  -0.1067140   0.0964469
   1.6472840  -1.1836524   0.9025419  -0.3616678   0.1807322  -0.9013199
  -0.0101027  -0.0412616  -0.1732022   0.4745513   0.6424521  -0.2803247
  -0.0611264  -0.2185880  -0.3765596  -0.0565525  -0.1345784   0.0761188
   1.1856391  -0.6736493  -0.5244189  -0.0849519  -0.0037649   0.2566462
   0.2184667  -0.0074507   0.0454815   1.2374675   1.9162954  -1.6538202
   0.2488349   0.6261472  -0.8042251   0.0862690   0.1679936  -0.2036641
   0.8651131  -0.2499801   0.0112429  -0.2620020   0.3206798   0.4169267
  -0.3187077   0.0552286  -0.1999116   0.9648798   0.1263146  -0.3071304
   0.0712414  -0.0051303  -0.5970435   0.1772629  -0.2288664   0.0522641
   0.1568973  -0.2525708   0.0195815   0.4295281  -0.2864474   0.1855985
  -0.1700615  -0.2200656  -0.1587410   0.0350466   0.1481436  -0.1401159
  -0.1766676  -0.5410482  -0.4024063  -0.0805044  -0.4613653  -0.3049778
  -0.0824138   0.3538757  -0.4693942   0.7635681  -0.1828089  -0.0702939
  -0.0140722  -0.1872983   0.1218558  -0.4076122  -0.4602744  -0.2665865
   0.4052643  -0.6816158   0.2209851   0.0545947   0.0310417   0.0689413
  -0.1684877   0.5388182   0.1613823  -0.7156386  -0.2488480  -0.5118075
  -0.0225221   0.0637037  -0.0173183  -0.0068810   0.2897650  -0.3246060
   0.2866902  -0.3427387  -0.9857335  -0.0445119  -0.0174879  -0.2246091
   0.6385478  -1.0047734   0.1763376  -0.6054605   0.2114359   0.6944479
   0.1371971  -0.2228907   0.1751457  -0.0007557   0.1513780  -0.2924772
   0.3468890   0.2266673   0.3695051  -0.1666459  -0.0352855   0.1668880
   0.0433728  -0.0569438   0.0323515  -0.1352313  -0.5095837  -0.3211441
   0.2026128  -0.0539502  -0.1312091   0.5261275  -0.7280211  -0.1933169
   0.5760710  -0.1441697   0.2729076  -0.0450141  -0.2087384  -0.0593978
  -0.8494411  -1.7338440   0.2149079  -0.1554862  -0.3027464  -0.1389953
  -0.0185153  -0.0207286   0.1013585   0.4075182   0.2150151  -0.4932830
  -0.2832276   0.8685974   0.4895410   0.1822186   0.2753052  -0.2315317
   0.3552200  -0.2408007   0.2384860  -0.3073650   0.2072766  -0.7663685
  -0.3646979  -0.2551859   0.2356030   1.3358636  -0.3097140  -0.3188380
  -0.1924902  -0.7493607   0.2605530   0.0438284  -0.0128853   0.1144781
   0.9195148  -0.2366966   0.1613908   0.1065061   0.1516719  -0.0656937
   0.1799382  -0.2195975  -0.1505312   0.4044586  -0.5556376  -0.4124912
   0.1589884  -0.1888840  -0.0144612   0.2373536   0.0055516  -0.0355403
  -0.4689547   0.0403546  -0.3484545   0.8066033  -0.9936259   0.3218641
   0.1898804   0.1373687  -0.2406580  -0.9355070  -0.6852948   0.0609653
  -0.5605267   0.1926556  -0.9337477  -0.1806737  -0.2066255  -0.2332151
   0.4551280  -1.4868770  -1.1553460  -1.0477937  -0.0154097  -0.1112680
  -0.3148984  -0.2078891   0.1162761  -0.6045480  -0.4138613  -1.2564886
   0.3045015   0.2033840  -0.8070067  -0.0517581   0.3205946  -0.0001298
   0.4230187   0.4168368  -0.0931084  -0.8839013  -0.1563960   0.7135583
  -0.0333520   0.0661630   0.0602906  -0.2357185  -0.9715252  -0.3260686
   0.8341310   0.2870937  -0.0168876  -0.2695605   0.2417283   0.1132695
   0.0276891  -0.1417555  -0.6029673  -0.5469202  -0.4380152   0.5062594
   0.0437175   0.1369456   0.0434096   1.0051591   0.4542331   0.1318150
   0.6923410   0.3524079   0.1293355  -0.1057489  -0.2574216   0.3524917
  -0.1307694  -0.3058854   0.2481942   0.1521176  -0.7845939   0.3049544
  -0.2163880  -0.0121707  -0.0611563  -0.2521435  -0.0138217   0.0312918
  -0.3208911  -0.4606477   0.1708737  -0.2829624  -0.1865217  -0.0598582
   1.1775300   0.3650252  -0.4904425  -1.8144346  -0.4830946  -0.0182020
   0.1310612   0.1494117   0.1358116  -0.2228245  -0.1847423   0.1406712
   0.8645675  -0.0396174   0.5023820  -0.0619671   0.1971422  -0.2454653
  -0.8938210   1.0908261   1.2212233  -0.0851032   0.2212496  -0.2082022
   0.0833380  -0.3936067   0.1970099   1.6697985   0.0205097   0.6245723
   0.6296827  -0.5600291  -0.2445036  -0.1471362  -0.2227895   0.1554582
   0.0241585  -0.0077585   0.2597862   0.0598251  -0.4655823   0.2231215
  -0.0766346  -0.1901898  -0.2094112  -0.0506219   0.1786555  -0.4320953
  -0.1946255  -0.4424425  -0.3640690  -0.0162555  -0.0181349   0.3283688
   1.7364564  -1.0103098   1.2134995   0.4613142  -1.1575494   0.0940354
   0.2982540   0.1371219  -0.0992723  -0.7615009  -0.8319626   0.2178344
  -0.1332369   0.7093734  -0.7647747   0.0819267   0.0046546  -0.3907080
   0.6066552   0.0630581   0.2770004  -0.6545423   0.1591002   0.0714327
   0.0179452  -0.0226615  -0.2457251   0.3849966   0.7678947  -0.0087750
  -0.0874505  -0.3391285  -0.5964389   0.0871484   0.1261505  -0.1761111
  -0.8301268   0.8918664  -0.4566589   1.4226434   0.1802596  -0.3275544
  -0.0066226  -0.3163103   0.1178006   0.3637837  -0.1116592   0.3771877
  -0.0525727   0.2845275  -0.0145056  -0.1597221   0.1164868   0.0201063
  -0.6003516  -0.4280248   0.2067289  -0.2685309   0.1606295  -0.5606810
   0.0921209  -0.1539119  -0.3884715   1.0408130   0.2700234   0.3539126
   0.4417317   0.0315811  -0.1177267   0.0593954  -0.1182197   0.2587986
  -1.2045610  -0.2011258  -1.0035136   0.3011332  -0.6466434  -0.4801688
  -0.1303797  -0.0474358   0.2575040  -0.9493590  -0.1346661   0.0531930
   0.4880577  -0.1055226   0.5274289   0.2721605  -0.0554279  -0.0277170
  -0.1462116  -0.3170687   0.3052427   0.2926685   0.5858517  -0.1038896
  -0.0527354  -0.0531592   0.1467268  -0.4822333   0.3018668  -0.5103697
  -0.7274243   0.0135638   0.2718864   0.2443610   0.0423697   0.2734853
  -0.4031129  -1.0026189   0.4722641  -0.5287575   0.8565150  -0.2624980
  -0.3002459   0.0940672   0.2391461  -0.1256628   0.3532982   0.1856390
  -0.2774133  -0.3960527   0.1669151   0.1171278  -0.1120433  -0.0395719
  -0.0359833  -0.0519324   0.8256851  -0.0279636  -0.1242146   0.5310245
   0.0691050  -0.1685872  -0.4498489   0.2042596  -0.6910983   0.1721539
   0.4440714   1.2550278   0.3558255  -0.0511129  -0.3292988   0.2768363
  -0.2243395  -0.6442800  -0.5422141  -0.3800831  -0.8793699  -0.4682576
  -0.3643065   0.0472838   0.3016604   0.9861936   0.4155935   0.6920887
  -1.0574209  -0.2169946   0.4106270   0.2949232  -0.0017932   0.0866395
   0.2359979  -0.9917677  -0.6253700   0.3718623  -0.2998530   0.3562236
   0.0048523  -0.2456739   0.0808222   0.1172379  -0.6266532   0.3274254
  -0.3332855   0.3868506   0.1370089   0.2360128  -0.0727851  -0.0365541
  -0.2190565   0.3038207  -0.0389467   0.0287002   0.3135008  -0.8170074
   0.0812502   0.2706894  -0.1376851   0.4470740  -0.1354608  -0.5810787
  -0.9068978  -0.1163819   1.1680611   0.0081006   0.1897853   0.0726488
   0.6300012  -0.3640323   0.0433312  -2.0495245   0.0876624  -0.7283263
   0.1023032  -0.1186538  -0.3230099   0.6416059  -0.7011899   0.1572343
  -0.4883505   0.8600786  -0.4468058  -0.0732872   0.1633629   0.0015082
  -0.5081236   0.2469852  -0.3365634  -0.1316067   0.0528928  -0.3607998
  -0.0293236   0.0695064   0.2097420   0.4458276   0.6651135  -0.6427634
  -0.6308773  -0.4929469   1.6528761  -0.0835167  -0.7159483   0.0708374
  -0.7173048  -0.3936215   1.1519767  -0.1128928   0.1306616  -0.2734625
   0.0278645   0.2170734   0.1883109  -2.2230494  -0.1314685   1.6179028
   1.1957741  -0.9372345  -0.7022054  -0.1075132  -0.3273055  -0.0322991
  -0.1540929  -0.2519801  -0.1905093   0.1346269  -0.6162559   0.2339821
  -0.1612389   0.2042842   0.1342118  -0.1590955   0.3101654   0.2021118
   0.0168145   0.1396535  -0.0413600  -0.2997390   0.0964196  -0.0998872
   0.2952821   0.1455129  -0.0746827  -0.2066664   1.4709717  -0.1466461
   0.0428552  -0.0409172  -0.1233881   0.2628148   0.1368435   0.0517209
  -0.3781910   0.4786710  -0.6064343   0.1825250  -0.2804879   0.0247350
  -0.3584709  -0.0935086   0.3156514  -0.8035662   0.2933804   0.0592020
   0.0461366  -0.1009799   0.3364465  -0.6527624   0.2727479  -0.1689229
   0.3854452  -0.5823788   0.5814699   0.2680788   0.0743747   0.2187328
  -0.4408285  -0.3089466   0.2406411   0.3822230   0.2355341   0.8301003
  -0.0978505  -0.1960499   0.0774742   0.8103877   0.9540994   1.2941458
  -0.2678244  -1.3400092   0.1893580  -0.3098102  -0.0385844   0.0379501
  -0.0997833   0.0484185  -0.3369753  -0.4243459  -0.4581699  -0.0085287
   0.1668841  -0.3242578  -0.2201328  -0.2043070  -1.8051670   0.4368387
  -1.0218211   1.1820772   0.2496396   0.0146083  -0.4075282  -0.0335044
  -0.1887420  -0.1925519   0.0662367  -0.5491706  -0.0928298   0.2620108
  -0.1149032  -0.0702819   0.3137882  -0.0459461   0.3192214   0.0915614
   0.0485526   0.3572888  -0.4441887   0.0314442   0.2297255  -0.1156116
  -0.4325353   0.3183831  -0.3981149   0.1949426   0.4383873   0.1361827
  -0.1904583  -0.0227828  -0.1459866   0.9360507   1.6578721   1.0461829
  -0.2157533  -0.1547220  -0.6946941  -0.1185929   0.2439108   0.1725248
   0.1985225  -0.3399527  -0.7660364  -0.4023752   0.8586632   0.6170955
  -0.4021582   0.1302454   0.0019229  -0.1380753   0.1321723   0.2500634
  -0.0753522  -0.1182529  -0.0740912  -0.4019436  -0.0678817  -0.0707602
  -1.7324292   0.4730142   0.7354896  -1.6095702   0.1316091   1.0184620
  -0.2210884  -0.0540908  -0.2266827   0.5101618  -0.5928831  -0.7411328
  -0.2612599   0.1055846   0.0475127   0.1115731  -0.0181429   0.3793881
   0.6245341   0.1552947  -0.6197204   0.0714993  -0.1400105  -0.2933110
  -0.3365941  -0.2038957  -0.1435118  -0.3032728  -0.1582412  -0.6843211
  -0.8450839   0.0738076   0.6474385   0.0699639  -0.1732303   0.2536641
  -0.2418333   0.6329271  -0.4621532   0.6897052  -1.4795227  -0.2449127
  -0.4970330  -0.6084234   0.0332905   0.9266612  -0.2185621  -0.7771468
  -0.5497892  -0.6590160   0.5061667   0.0743475  -0.1228095  -0.1815712
   0.4802757  -0.2311735  -1.2139178   0.3541244  -0.1866129  -1.6606315
   0.0643705   0.1556171   0.0308035   0.0845823  -0.0023387  -0.6923090
  -0.6482474   0.1209777   0.1907996   0.0215982   0.1321590   0.1064656
  -0.0542044   0.1773686   0.3485320  -0.1360030   0.1761260   0.2735969
   0.2980663  -0.1165700  -0.1493897   1.5887738  -0.7263474  -0.5336533
  -0.4573742   0.3587825  -0.0495973   0.2916594   0.0129069  -0.1005358
  -0.6729804  -0.5629359   0.3182144   0.3946797   0.3283144   0.9761284
   0.1122557  -0.1446640  -0.1558927  -0.3803520  -0.1270857  -0.2399235
   0.0655965  -0.7511824  -0.4021652   0.1824123  -0.0212662   0.0537856
  -1.7134927   0.3242002  -0.6064535  -0.2475361   0.7728592  -1.3853723
   0.2967014  -0.2946778   0.0658725   0.5349993  -0.8012505  -0.2863652
  -0.2395792   0.7981609   0.8081377   0.0097138  -0.2145727  -0.1383764
   0.0019123  -0.3790260  -0.1146634  -0.4523066   0.0342381   0.0483226
   0.2625189   0.1083411   0.1484890   0.0560385   0.4485430   0.1151592
  -0.0121719   0.2173362  -0.3932771   0.0035637   0.0968527  -0.0318046
  -0.8637471   0.9908761  -0.3438143   0.2790724  -0.1555947   0.0869008
  -0.4049832   0.1064483  -0.1783650  -0.7420416  -0.3779002  -0.9491224
  -0.6052333  -0.8327730  -0.9364211   0.0284801   0.5507095   0.1290245
   0.2517654   0.2251946  -0.4907826  -0.0569720  -0.2793913  -0.5090104
   0.1641944   0.4076351  -0.3076764   0.3096337   0.2535722   2.5048112
   0.2113727   0.5145183   0.9568615   0.0023894   0.3694183   0.1323062
  -0.1258029   0.6705735  -0.0645227   0.2848968   0.3595079  -0.0458876
  -0.0862421   0.0788707   0.1293590   0.4518028  -0.6034330   0.2398192
  -0.8274237  -0.1474314   0.1539191   0.1573339  -0.5174480  -0.4074995
   0.5860548  -0.4022057  -0.3009550   0.7146830  -0.5426983  -0.4778792
   0.3151972  -0.2361689   0.2202230   0.1950306  -0.1736517   0.0348680
   0.9970736  -0.7536868   0.7462144   0.2231841  -0.3384501  -0.1452678
  -0.1429401   0.3838331   0.6244753   0.0364053   0.2544567  -1.1022223
  -0.1128069  -0.0828248  -0.1695822  -0.3567451   0.5278550  -0.3281380
  -0.0936348  -0.4034342  -0.5218100  -0.2693314  -0.2375114  -0.3292052
  -1.0236898   0.1282948  -0.0828878  -0.2301981  -0.6673328  -0.6475768
   0.1038146   0.0471537  -0.0974716  -0.2153674   0.5358902   0.4110599
   0.7426655  -0.3382533  -1.0710972   0.1292668  -0.4055651  -0.0511556
  -0.4940774  -0.1121653  -0.2294693  -0.2192184  -0.5782789  -0.7209237
  -0.2139062  -0.0038340  -0.0570669  -0.0285919   0.3000434   0.8308883
  -0.3339538  -0.1969995  -0.6535912  -0.1907726   0.0258618   0.0060079
  -0.3494155   1.6730825  -0.6076257  -0.2698654  -0.5119821   0.1711763
  -0.1739071  -0.0034167  -0.0748491   0.9385257   0.8032998  -0.2650153
   0.3424728   0.2554303  -0.7178645  -0.0328229  -0.0665283   0.4631111
   0.5039674   0.2222310   0.5550651   0.8749876  -0.7674953  -0.4656614
  -0.2330130  -0.2176045   0.1245480  -0.5706323  -0.7188080  -0.5854485
  -0.2061967   1.6750308  -0.4555281  -0.1317977  -0.2970092   0.1066996
  -0.0629759  -0.1432155  -0.3026598   0.0710453   1.1166204   0.7328375
  -0.0174296  -0.2041018   0.0111408  -0.0570402  -0.4842796  -0.0181520
  -1.1156839   0.1702133   0.0619801   0.1688978  -0.1221960  -0.2571919
  -0.2689063  -0.8716083  -0.5103885  -0.0784294  -0.2514198  -0.0854057
   0.0522918   0.1993193   0.0018707  -0.1607578   0.0780107   0.2335228
  -0.0192416   0.4483324   1.3024237   0.1638896   0.0445902   0.0195083
   0.2874188  -0.1505615   0.1158304   0.1737925  -0.1860661  -0.0658148
   0.0020362   0.0673932   0.3052154  -0.4927153  -0.2007619   0.3509112
   0.0683096   0.2873996  -0.2496069   0.4257213  -0.3093537   0.3563470
   1.0590914  -0.1988120   0.3102659   0.7301898  -0.4298985   0.3568331
   0.5699210  -0.0546651  -0.0517762   0.7945200   0.0776805   0.0073903
   0.6762126  -0.1421819  -0.0858957   0.0402323  -0.3416334   0.0380107
   0.3742876  -0.0595914  -0.2388702  -0.4093404   0.1895819   0.3086871
  -0.0183262   0.0520737   0.0257512   0.4263479   0.2705893  -0.0818992
   0.3681133   1.0592756   1.7200082  -0.1279218   0.2300406  -0.2015780
  -0.5105939  -0.8690312  -0.2954814  -0.3647775   0.5293942   0.8893083
  -0.7604190   0.1301142   0.0371940  -0.9711203   0.2161558   0.0271849
  -0.5478943   0.1064871   0.2030848  -0.0233649  -0.3353839  -0.3310150
   0.5031752   0.5098996   0.5229998  -0.5911449  -1.9835324   0.6434234
   0.0220852  -0.5370838   0.3044205   0.1867022   0.0342232   0.3016134
   0.5837635  -0.6713147   0.4300561   0.5330832  -0.1085729   0.2338371
   0.1856505  -0.2360203   0.9388972   0.6581922  -0.1241102   0.0560540
   0.0337638  -0.0630399  -0.1661802   0.6760403   0.8023013   0.2324003
   0.9955588   0.3952018  -0.1238655  -0.1339958  -0.0179246   0.2501230
  -0.0987691   0.2768358  -0.0516313   0.2597708  -0.0614303   0.3938700
  -0.1013100   0.0404800   0.1167358   0.4627760   0.1324493  -0.1497359
  -1.0990199  -0.1657667   0.2083843  -0.0019402   0.0237575   0.0792389
  -0.7768271   0.3193611   0.3301107  -0.1028239  -0.0823398  -0.5440502
  -0.0918443  -0.0211894  -0.4534372  -0.4844729  -0.4478981  -0.2893649
  -0.6672450  -1.0843004  -0.5055080   0.5019136   0.1292320   0.0406072
  -0.5023737  -0.2754357   0.5434032   0.0432325   0.7960212   0.6848030
   0.1040395  -0.3210906   0.1424670   0.1983375   0.0274380   0.8273655
   0.0504171   0.7515346   0.4853978  -0.2635639  -0.1921060   0.0830140
  -1.0151083  -0.2205256   0.0948489  -0.1729664   0.4053486  -0.2230172
  -0.1698449  -0.1765540   0.0586740   0.0212718   0.0970043   1.4827798
   0.1811743  -0.7105198  -0.8399037   0.0395625   0.2701685  -0.2535794
   0.7554314   0.7980903  -1.2846656  -0.0832783  -0.0943672  -0.3068992
  -0.2216479  -0.0390985   0.1177348   1.4049754   1.1109135  -0.7545943
   0.0136199   0.1352017  -0.0026301  -0.1975442   0.2514783  -0.0994201
  -0.3354727   0.2700773  -0.1259235   0.1180795   0.2674924  -0.0181356
  -0.3616120   0.1724211  -0.0915152  -0.3284655  -0.1899660  -0.4648477
  -0.5043517  -0.2862418   0.2216467  -0.2760766  -0.0038609   0.0356409
  -0.0534027   1.2962538  -0.0353126   0.1401546  -0.6047942   0.1875918
   0.1169991   0.1926530  -0.0624187   0.1560599   0.3950141  -1.0820332
   0.0739170   0.2594775  -0.0760284   0.1634306   0.0527567   0.0801161
   0.1316625   1.0382699  -0.4829289  -0.5549296  -0.5045878   0.8776144
   0.4190707   0.1487051   0.0747367  -0.3455806  -0.5654066   0.7009881
   0.6035660  -0.3189802  -0.8359418  -0.4399882   0.1044260  -0.0105853
   0.2460162  -0.8024126  -0.6896705   0.0552618   0.2733245   0.5624263
  -0.1174546   0.1419939  -0.0214918   0.6940766   0.9476724   0.2410689
  -0.9477396  -0.3544707   0.1228192  -0.0150475  -0.0429204  -0.2044724
   0.7538108  -1.0520137  -0.2493071   0.0917826  -0.0031033  -0.2626380
   0.1607517   0.2808608   0.2624474   0.7858182   0.4457795   0.2961532
   0.0824912   0.3004894   0.3103251   0.0018530   0.2256195   0.1526921
  -0.3630857   0.0665309   0.5852793  -0.3114153   0.3810591   0.2221077
  -0.0847913  -0.1147203  -0.2453844  -0.9738875   0.0298558   0.3668059
  -0.2546671  -0.8918442   0.2173315   0.0585589  -0.1644882  -0.0459052
  -0.2905546   0.1170802  -0.0704333  -0.0492431  -0.0358143   0.3719671
  -0.0439541  -0.0861473  -0.0836661  -0.4211154   0.2824953   0.7613189
   0.2769172  -0.6043900  -1.1906021  -0.1327833   0.2579245   0.2407264
  -0.1658542  -0.0973239   0.5281277  -0.3940622  -0.2860018   0.5376101
   0.0849162  -0.0042011  -0.1403640  -0.5268240   0.3651806   0.3245770
  -0.1412721   0.0223154   0.1989874  -0.1215251  -0.0057774   0.1800727
  -0.6967842  -1.1534876   0.7030546  -0.5352234   0.2338651  -0.8380072
  -0.0726764   0.2514226   0.2134392  -0.0662832  -0.5698421  -1.1213343
  -0.1057834   0.2850348   0.2509352  -0.3927232  -0.0718287  -0.2113608
   0.0796845  -0.1140343  -0.2124445  -0.1619946  -0.6124028  -0.1971228
   0.0016053  -0.1912264  -0.0115924   0.8675840   0.5013548   0.2950850
  -0.8452667   0.2924102  -0.1542104  -0.1660211   0.1180301  -0.1001228
  -0.4907995  -0.1760318  -0.2577962  -0.7024900  -0.4619138  -0.4305183
   0.3086734   0.3054776  -0.1311972  -0.4355545  -0.4341413   0.0364566
  -0.1683359   0.5342256  -0.5567641   0.2823528  -0.0660685   0.0133118
   1.4378128  -0.1865204  -0.0673312   0.1235093   1.0462782   0.1978295
  -0.1609533  -0.3645884   0.0681330   0.4366202   0.0189056   0.4294477
  -0.1355022  -1.2525703   0.0961735   0.1529642  -0.0074911   0.0188750
   0.2943846  -0.4789676   1.3017399  -0.1915025   1.3292797   0.1866173
  -0.1196995  -0.1059499  -0.1879088   0.2679466  -0.7594811  -0.1517475
   0.3854891  -0.1215713   0.5399659  -0.2418708  -0.1122932   0.0639484
  -0.4632528   0.3496915   0.3417235  -0.0801077  -0.3021706   0.3292566
  -0.0856146   0.1165339   0.2189859  -0.0353488   1.5027636   0.5172127
  -0.4316643   0.4666320  -1.0552125  -0.3967769   0.0282734   0.0895909
  -0.2323332   0.0824759  -0.1550404  -0.8107736  -0.1261069   0.7013502
   0.2664377  -0.0046819   0.0637558  -0.0679302   0.5308385  -0.2019798
  -0.5390939  -1.0510812  -0.0122411  -0.6082270   0.1457816   0.1186732
  -0.2533374  -0.7853068   0.9996816  -0.5267636  -0.6649544   0.3674028
  -0.0740642   0.0487180   0.0738748   0.0170255  -0.2194964   0.5570552
   0.3602639   0.0337958  -0.2350195   0.4216219   0.1008139   0.0674478
   0.5207616   0.3242335  -0.0215525   0.4650558  -0.8416272   0.3820766
  -0.1141439  -0.3087301   0.1485486  -0.6305946  -0.4499496   0.2290504
  -0.2427517   0.0878465   0.1708290  -0.2009760   0.0891576  -0.0084731
   0.1533342   0.3215378   0.3618558  -0.0291567   0.1548079   0.1968813
   0.1782905   0.2174257  -0.2018757  -0.6655408   0.1572242  -1.1384298
   0.1815064  -0.0210533  -0.2394452   0.0231741   0.2861693   0.1847785
   0.1657487  -0.2204013   0.9211727   0.3517002   1.1078674   0.1467306
   0.0807471  -0.0435547  -0.1501237  -0.0599942   1.0156305   0.9216188
  -0.7267836  -0.6288171  -0.1102278  -0.0532168  -0.0254492   0.0495643
   0.2624200  -0.0731320   0.0141766  -0.8014018   0.3355406  -0.2567494
   0.0030047  -0.0060638  -0.3087357  -0.3024548   0.5021931   0.7474545
   0.6634703   0.0913205  -0.5162789   0.1916619  -0.2249922  -0.2051197
   0.3297421  -0.1814934  -0.2709613   0.2519861  -0.0841972  -0.5507077
  -0.0362457  -0.0234544   0.0693868   0.3008129  -0.2529006  -0.3452578
   0.2766668   0.1956803   0.4812002   0.1366722  -0.1738395   0.1440574
  -0.4256323   0.5189801  -0.0347433   0.2761106   1.8320836  -1.0264844
  -0.2214818   0.1064497   0.0111380  -0.4088178   0.4962322  -0.1154176
   0.4269079  -1.1502678   0.3634551   0.1561775  -0.1810264  -0.0829035
   0.4208179   0.3401251  -0.5580874  -0.3848107  -0.8229349   0.1341498
  -0.3461263  -0.1151908   0.0080710  -0.7847631  -0.1682571  -0.1163081
   0.2284536  -0.3312887  -0.7048370  -0.0355498   0.0087107   0.3804305
  -0.1391625   0.6709397   0.1593637   0.3060092   0.0678004   0.3192595
  -0.0783655   0.1416184   0.0899953   0.1464258  -0.1727438  -0.4512251
   0.0219383   0.7981223  -0.0485404   0.2636685   0.0808481   0.2723220
   0.7866505  -0.7439785   0.6609201  -0.0421643  -0.3293687   0.2169911
   0.0829733  -0.0147241  -0.0731759   0.0408875  -0.1226601  -0.3376879
   0.0968107   0.2130279   1.2693533  -0.0867181  -0.1404347   0.1152703
  -0.4497938  -0.2338549   0.4582654   0.2981025  -0.4157069   0.0936018
  -0.0150455  -0.3202213  -0.1842253  -0.5614060  -0.1828463   0.3067095
   0.1826289  -0.8332176   0.1143841   0.1240278   0.1582983  -0.1220729
  -1.2340350  -0.2303456  -0.3890466   0.3352081   1.0387342   0.6824361
   0.1189415   0.3163372  -0.0833145   0.3519445   0.1936896   0.3378570
   0.3900915   0.3751377  -0.3280353   0.1117590  -0.1601470  -0.0988475
   1.0804120  -0.2793985  -0.1775373   1.1843235  -0.1640390  -0.2920641
   0.1333108  -0.0410068   0.2654605   0.1405414  -0.8121475   0.7289141
  -0.2538769   0.1982161   0.5401861   0.1654444  -0.3555011   0.0749976
  -1.2127345   0.3897102  -1.2228921   0.7478802  -0.6036253  -0.0629338
   0.2320588  -0.1217297  -0.2573624   0.0724056  -0.3428602  -0.5076596
   0.1508505  -0.0461854   0.0811008  -0.0445715   0.3462237   0.0537675
   0.0897832   0.4560280   0.0891153  -0.5314764   0.6694439   0.0558484
  -0.0253317   0.3820373   0.1634504  -0.1318667   0.2099424   0.1183217
   0.2674913   0.7552416   0.5705816  -0.1175716  -0.2115246   0.1161417
  -0.2853331  -0.3340729   0.3046143   0.2204210  -0.0124161   0.0536501
  -0.3834802   0.1248583   0.1307063  -1.1534948  -0.9692948   0.1898297
   0.0571460   0.4551942   0.2920919   0.0109783   0.0424109  -0.1911840
   0.1595677  -0.2681733   0.4822899   0.2875471   0.1240520   0.3519733
   0.3696499   0.2924666  -0.0653378  -0.9511457   0.9613743   0.5170964
   0.9889003  -0.0834999  -0.1892730  -0.0104612  -0.0778959   0.0149189
   0.1323857  -0.0542345  -0.2066717   0.3487387  -0.0389398  -0.4919314
   0.1799314  -0.2155057  -0.0050370  -0.1739211   0.2919727   0.0244589
  -0.3466347  -0.6344618  -0.2905402  -0.1708623  -0.3451856   0.0948462
  -0.2168230  -0.1227787  -0.0668782  -0.4553204  -0.3210771   0.3829705
   0.0285646  -0.3548449   0.0229140  -0.2614901  -0.3745365  -0.0664535
   0.0705472  -0.2441294   0.1360316  -0.2849293  -0.1565599  -0.1099491
  -0.0005763   0.1879026  -0.2980934  -0.5488505  -0.5833469  -0.4421241
   0.2150100  -0.2310293   0.0629605  -0.8423811  -0.1462113  -0.7324870
  -1.6531985  -0.1386353   0.3742016   0.1811937  -0.2096364  -0.0386893
  -0.1649593  -0.2746132  -0.9277366   0.1843851  -0.2234908  -0.0926173
   0.0646128  -0.0319426   0.0882693   0.6351899  -0.3483055  -0.1677671
   0.4739469   0.7393687   0.2730517   0.0398476  -0.4234783  -0.2334787
   0.0086821  -0.7109688  -0.3278314   0.0323144  -1.6188985  -0.8395787
   0.2835847   0.0492778   0.1090464   0.7181896   0.8121508  -1.1619107
  -0.2967295   0.6302026   0.4475579   0.2280203  -0.0646578  -0.2310823
  -0.1677283   0.1437487   0.0136751   0.5767099  -0.5193721  -0.3740853
  -0.3225600   0.0335327  -0.0324969  -0.4217637  -0.1377673   0.6000342
  -0.1446938  -0.0041467  -0.3323535  -0.2398170  -0.0712029   0.1833206
  -0.3566911  -0.5581381   0.1372299   0.4101464   1.8151211   0.1153823
   0.0416921   0.1435941   0.2971353  -0.3757444   0.1920036  -0.0802474
   0.6178334   0.1952837   0.8434031   0.0193841  -0.1049881   0.1535448
  -0.0138955   0.7146836   0.0133860  -0.3086496   0.5719442  -0.0147573
   0.0523975   0.0970050  -0.0345200   0.3283355   0.3807711  -0.1710805
   0.4991316  -1.3567675   0.9781331   0.3131096   0.4113472   0.0726214
   0.3075972   0.4148757   0.0782395   0.8616579  -0.0821976  -1.0511537
  -0.0038500  -0.1075307  -0.0657027   0.3382127  -0.1379887  -0.2251751
   0.4946962  -0.1554050  -0.3163851   0.1258271  -0.0266237  -0.1215278
   0.0953532   0.0457945   0.2806290   0.1875358  -0.0711238  -0.0785911
   0.2881582   0.2207752   0.1102421  -0.2331003   0.7033585   0.0094040
   0.3929096   0.2663420   0.0903525  -0.0049410   0.1133340   0.1893541
   0.0996180   0.8063373  -1.5968376  -0.0181334   0.8163814  -0.0824916
   0.2190788  -0.0561959  -0.0042923   0.2472975   0.5451379   0.5952851
   0.5583987   0.5957913  -0.4396368  -0.0745591  -0.0170549   0.2027522
  -0.1196562  -0.5938971   0.7031054   0.0444354   0.4616671   0.8937433
   0.2558123  -0.0486606   0.1586306   0.2479340  -0.5725529   0.2527938
  -0.2318871   0.1393919  -0.1908545  -0.3385493  -0.3502367  -0.0620477
   0.1141115   0.2092339  -0.2570150  -0.0176734  -0.7496121   0.4783516
  -0.1527894   0.0187570   0.0857483   0.3095713   0.4745939   0.0961148
  -0.6113214  -0.9309703   0.1942867  -0.0999313  -0.0634212  -0.1438954
   0.3964098  -0.9791677  -0.1617516  -0.7373647   1.1911162  -0.1901629
   0.0171542  -0.1730917  -0.0730151   0.7010480   0.4516161  -0.0804792
  -0.3834891  -0.1362390   0.3219929   0.0826710  -0.4471716   0.1785731
   0.4732449  -0.0391150   0.4444717  -0.3168959  -0.0763307  -0.0600351
   0.0248869  -0.1854551  -0.1098954   0.3359849   0.3079984   0.0765327
  -0.0376658  -0.6520096  -0.8782481   0.0895747  -0.0466625   0.0558502
  -1.4347655  -0.0362601  -0.3760258  -0.3808784   0.0951334   0.6012500
  -0.2397579   0.0360007  -0.1859003  -0.5944858  -0.0645317   0.8878505
  -0.0295685   0.3689509  -0.1821009   0.0626944  -0.0595497  -0.1003099
   1.2002201   0.5221390  -0.9300581   0.1604912   1.2650508   0.5181572
  -0.1589402  -0.1047806  -0.1089599   0.0259854  -0.0048892  -0.0764722
  -1.3237881   0.0634817   0.6636243   0.3223103   0.2490448  -0.1453056
  -0.0479928  -0.6545156   0.2996859  -0.1661972   0.6859743  -0.8551003
  -0.1578027  -0.0811247  -0.2956313  -0.8915850   0.9259250   0.3265084
  -0.5181923   0.3682331  -0.3685299  -0.1579742   0.1016211  -0.3005437
   0.1330126   0.5219273  -0.3195865   0.2810194  -0.3914900  -0.5947961
   0.2309067  -0.3611929  -0.1534355  -0.2684052  -0.8217281   0.4439316
   0.1161275   0.3521886   0.9110612  -0.2114233  -0.1739831  -0.0055324
  -0.0538218  -0.2585027  -0.2821699  -0.4642263  -0.1646923   0.4525716
   0.0388598   0.1660125  -0.0379534   0.1561625  -0.4309983   0.4189574
  -0.6138301  -0.7974001  -1.5259907  -0.1740639  -0.0254639  -0.3053670
  -0.3907208  -0.1848616   0.1492742   0.8732306   1.1339409  -0.9744791
   0.0377557  -0.1334477   0.0201731   0.0996938   0.5041543   0.0376041
  -0.6300098  -0.2022812  -0.1266203   0.3438567   0.2524328  -0.0235949
   0.2772343   0.2120240  -0.0124598   0.4006806   0.1988408  -0.0252663
  -0.0747958   0.2335799  -0.0798690   0.0817753   0.7180021  -0.5462039
  -0.0583269  -0.0714116   0.1976491  -0.2059132  -0.0557261   0.2786157
  -0.5839964   0.8108617   0.1611736   0.0493987  -0.5679119   1.4837715
   0.1289260  -0.1719560   0.0637275   0.9402050  -1.3207392   0.6977806
  -0.8001308  -0.4940417   0.0755207   0.1320889  -0.2697305   0.1625162
   0.3332115   0.5473540   0.4635742   0.3392776  -0.5211349  -0.1204904
  -0.0384495  -0.2937394   0.0799340  -0.4107302   0.0831158   0.3387000
   0.2658849  -0.3047069   0.5085569   0.0001518   0.0940585   0.3641615
   1.3329039   0.1947697   0.7310155  -0.0522380  -1.0317619  -0.5064509
  -0.2446943   0.0743291  -0.6571215  -0.1409971   0.4458898   0.2536640
   0.2819040   0.2837974  -0.2712609   0.0101267   0.1074971  -0.1599283
   0.3084586   0.1718605  -0.2844114  -0.5292978   0.6662904  -0.0462072
   0.0677049   0.2542102  -0.1232239   0.4631779   0.0988388   0.3689409
  -0.1664748  -0.2769069  -0.3717783  -0.1349898  -0.0414892  -0.5215460
  -1.0199344  -0.3124721  -0.2180868  -0.0689476  -0.2299742  -0.0669495
  -0.3420791   0.0709393  -0.0468392  -0.0676670  -0.0931569  -0.0285001
  -0.0609116   0.0153229   0.0011075   0.2377430  -0.3461034   0.1023284
  -0.1186924  -1.1449338  -0.1021545   0.5336896  -0.4593714   0.1308301
  -0.1876684   0.3023526  -0.0317064  -0.6783940   0.7365568   0.3860828
  -0.6988380   0.8544636   0.3582119   0.0262177   0.1367906   0.0001591
  -0.1792268  -0.0367175  -0.3096061  -0.6379651  -1.1932498   0.6469598
   0.0040880   0.1183534  -0.0714561   0.4309799   0.2555567  -0.3763357
  -0.2122696  -0.1095639  -0.5668520  -0.0567030  -0.0862618  -0.0447966
  -0.5524638   0.2910311  -0.3593937   0.5730148  -0.4635024   0.3191885
  -0.3114050   0.3193550   0.2974127   0.2980913  -0.0846230   0.2749760
  -0.6515870   0.3565859  -0.0668486  -0.2582976  -0.2180392  -0.0633998
   0.1309689  -0.4057402   0.6118364  -0.0252253  -0.0782819   0.3271790
   0.3401749   0.1123540  -0.2237626   0.0353197   0.2137647   0.4146059
  -0.0602116   0.5537299   0.9288477  -0.0142198   0.0383984  -0.2236512
   0.0093122   0.0525274  -0.1854798  -0.0860126  -0.0210524  -0.3613034
   0.0053631   0.1472324   0.1883379   0.3116393  -0.0451444  -0.3514051
  -0.6352683   0.7273929  -0.3349235  -0.0355935   0.5372410  -0.0025176
   0.1100236   1.0070669   0.3078152   0.5794390   0.2679512  -0.0243067
  -0.0327022  -0.1576333   0.2244344  -0.5140167  -0.6263549   0.2307893
   0.5985243  -0.4558107  -0.1969240   0.0376437  -0.1029724  -0.2829156
   0.0131488   0.3897789   0.1929849  -0.1004396  -0.3915903   0.0624806
   0.0516279  -0.1149364  -0.4819796   0.1976892  -0.3373129  -0.6028795
  -0.1850201   0.0320700   0.5517469  -0.1288474  -0.0914512   0.0124931
  -0.0056796  -0.1177568  -0.4707761   0.0300768   0.2574066   0.2309255
   0.1820973   0.0955960  -0.2197650  -0.1059537   0.0348135  -0.0566840
   2.0865611   0.6867034  -0.8794699  -0.5667416   0.1072375  -0.2888902
   0.5896927   0.0543754  -1.1383252  -1.9783369   0.2501432   0.5077779
  -0.2264652   0.3150297   0.4179484  -0.3488170   0.3326018   1.2758085
  -0.0470712  -0.7211674   0.3380098  -0.3935959   0.0614443  -0.2328096
   0.5803351  -0.4443091   0.9650526   0.0544653   0.1397460  -0.9795795
  -0.0756559  -0.1918499  -0.0706482   1.1828466  -0.2152172   0.5655026
   0.7936843  -0.3266704   0.0413602  -0.2543663   0.1336426   0.1003740
   0.6146397  -0.5744328  -0.4518596  -0.3968116   0.1922443   0.2353654
  -0.2083275  -0.0234888   0.0696178  -0.2947153   0.5496414   0.2906638
  -0.0826484  -0.2454704   0.1928161  -0.1902263   0.0710206  -0.2805746
  -0.8059388  -0.0140232   0.1946311   0.7035185  -0.7709690  -0.9139885
  -0.2275278   0.0770755   0.1761383   0.8939294   0.2657267   0.4370185
   1.2092604  -1.2559242  -0.0274663   0.1639509   0.1355640   0.3810604
   0.1697523  -0.0633473   0.0368267   0.3293194  -0.0387088   0.2892988
   0.1832536   0.0372324  -0.1016502   0.4359234   0.6130243   0.2915591
  -0.7646115   0.7441838  -0.3125643  -0.1767190   0.1040120   0.0750717
   0.0939579  -0.5353588  -0.0170070   0.3535424   0.4753831   0.2303207
   0.1693488  -0.1245759   0.0810317   0.2414738  -0.4494215  -0.3515349
   0.3790886  -0.7703117  -0.5979916  -0.0266689   0.0216775  -0.0428227
   0.7881151   0.1942825  -0.7582278   0.3878204   0.1166854  -0.3954846
  -0.0639771   0.1149871   0.2637234   0.6396287  -0.2079603   0.9981072
  -0.0881000  -0.8184079   0.4706256   0.1422432   0.3808205   0.1688973
  -0.2621537  -0.5924393  -0.3091476  -0.2257826  -0.1117297  -0.3217768
  -0.2088787  -0.1413972  -0.1452505  -0.4672701  -0.2553774   0.2217306
  -0.9355512   0.7122773  -0.8099369  -0.2577539  -0.3199237   0.1184507
  -0.0935936  -0.1134439   0.3255438   0.3136635   0.2533560   0.5487372
  -0.1737054  -0.0217767  -0.3149301  -0.4782473  -0.2019590  -0.0683359
  -0.1415290   0.0057979  -0.3544690  -0.2359363   0.0990849  -0.1803344
  -0.0163433   0.1024335  -0.3236476  -0.5485834  -0.2456036  -0.1765875
   0.0621136   0.0705864   0.2204578  -0.1299441  -0.0814467  -0.0230105
  -0.4528243  -0.4976535  -0.7247322  -0.0701644  -0.0763543  -0.0327586
   0.8773048  -1.1359284  -0.2742420   0.1962362  -0.5544057  -1.1775613
  -0.1070348  -0.2548461   0.2525239   0.1331895  -0.1356812   0.1493551
   0.1156019  -0.1072522   0.2287445   0.1867693   0.0184511   0.0251690
   0.5910775   0.2014525   0.7594088   1.3059178  -0.6543908  -0.6144548
  -0.1262293  -0.1290175  -0.1801414  -0.1767130  -0.0314821  -0.3488176
   0.2376927   0.3046492  -0.3146509   0.3126079  -0.2334452  -0.1052707
   0.2695648   0.3547933  -0.1346232   0.6629511   0.2053790  -0.0032513
  -0.1352809   0.1541857   0.1707189  -0.0534910   0.1971238   0.1318110
   0.4979577   0.1719409   0.0202926   0.3010175   0.1938313   0.2248057
   0.9137742   0.9462209  -0.2440329   0.2253608  -0.5418047  -0.3952857
   0.0943992   0.2769692   0.2017732  -0.0826453   0.3033826   0.1057592
   0.6340228   0.0311724   0.3451945   0.2235339   0.2518538  -0.0125342
  -0.5470950   0.0766143  -0.1005779  -0.0915089   0.1247031  -0.0621650
  -0.0180046  -0.0189063   0.1978446   0.2968153  -0.4677089   0.3591588
  -0.4908279  -0.1225952  -0.1370122   0.2380027   0.1838194   0.0747180
   0.2253249   0.3688051  -0.5013240   0.4620779   0.3736767  -0.1105633
  -0.1400597   0.4300913  -0.0266534  -0.0238109   0.6225207   0.5476070
  -0.6145543  -0.0371694   0.0115374  -0.3070096  -0.0586719  -0.1229970
  -0.1251920   0.9240387  -0.1730011  -0.4044349  -0.0902307  -0.2642717
  -0.1611713  -0.1177847  -0.1225482  -0.8236156  -0.3579557  -0.6729757
   0.1945505  -0.1370882  -0.5701179   0.0475247  -0.0293686  -0.0279635
   0.8349612  -1.1678601  -0.5143113  -0.3797634   0.4172285   0.8997716
   0.0349599  -0.3085049   0.1311948   0.6873853   0.5441828  -0.7294254
  -0.4951873   0.0410031  -0.0954771  -0.1642932   0.1826029   0.2252399
   0.1929597   1.7645722   0.6285335  -1.3881924   0.3268046  -0.6903443
  -0.3742014  -0.1135059   0.1574051  -0.0036229  -0.3894301   0.8299274
  -0.4136020   0.0087598   0.0001873   0.1939114   0.1173378   0.0757289
  -0.3505089   0.6908756   0.8862118  -0.1829626   0.1082839  -0.3272149
  -0.0080161   0.0231166   0.2278059   0.5874460   0.6317016   0.6041169
  -0.1886005  -0.5279904   0.9297466  -0.0195482  -0.0019138  -0.1898887
  -0.1305118  -0.5117806  -0.5407504   0.1353263   0.3803785  -0.1508797
   0.1071280   0.2608240  -0.2241369   0.3257555  -0.1736633  -0.7071268
  -0.7096402  -0.0294161  -0.7043949  -0.0138273   0.0023485   0.1750198
   0.1730763   0.1526237   0.3016158  -0.6294564  -1.0878139  -0.5318903
   0.0788938   0.0582567   0.2638450  -0.3455157   0.1413912   0.6774417
  -0.2217212  -0.2986102   0.3753309  -0.0718877  -0.2041143  -0.0123929
  -0.5534571  -0.1192649   1.2006638  -0.3186295   0.2603957  -1.9486036
  -0.0713583   0.2579878  -0.3157015  -0.0343350   0.3178387  -0.1506885
  -0.2048875   0.0501985  -0.8439112  -0.0002874  -0.2196023   0.2652444
   0.3041788  -0.5483251   0.7273652   0.4864392   0.0770440  -0.1668016
  -0.4268441  -0.3519439  -0.3333546   0.0584899  -0.5221599  -0.6692062
  -0.5261177  -1.1372265  -0.3077523  -0.0104458  -0.2044648  -0.0217780
   0.6635829  -0.3321284  -0.2031498   0.8378327  -0.6602950  -0.0319226
   0.1784056   0.1727583   0.1746784  -0.7604466   0.0590458  -0.3359253
   0.3785551  -0.4706883  -0.1162721   0.1416715   0.1437271  -0.4783733
   0.1075157   0.3127458   0.4542458   0.1412572   0.0038556  -0.2841589
  -0.2644332   0.2013713  -0.0164463   0.2993852  -1.7378893   0.2599253
  -0.1128456   0.0217002   0.1169533  -0.0071161  -0.0793073   0.3969667
  -0.3862484   0.4433011   0.2022393   0.2971372   0.3040877   0.0788117
   0.1314283  -0.0589833  -0.2275874   0.0797039   0.1223166  -0.2654289
   0.3210955  -0.8322689  -0.0431052  -0.2298358   0.1381952   0.2237839
   0.2948777   0.2960257  -0.2004014   0.5966937   0.0995487   1.0393328
   0.0827816  -0.2009722  -0.1220474  -0.1078222  -0.0935500   0.8632022
   0.2098365  -1.1264522   0.4422287   0.0885389   0.1215699  -0.0508124
  -0.3774038   1.2025079  -0.1208064  -0.7428896  -0.9530316  -0.0090406
  -0.1487835   0.1179986   0.1545843  -0.0697684  -0.5853708  -0.5546274
  -0.3363211   0.2989860   0.7913710   0.1242984   0.1806671  -0.1754863
   0.4673515   0.3130354   0.1558170  -0.3674120  -0.2105041  -0.4781246
   0.2234523  -0.1024105  -0.2624696   0.2834758  -0.1984388  -0.3494989
  -0.4608010  -0.5352345  -0.0829724  -0.0880503   0.1917405  -0.4521450
  -0.2580065   0.8305479  -0.7227133  -0.4115148   0.1242976   0.1517903
  -0.1907152   0.0686750  -0.1658248  -0.1463221  -0.8448527  -0.0032784
   0.0381996  -1.0366660  -0.1813835   0.0139904   0.2843850   0.0915992
   0.2847197   0.0515817   1.3474625   0.0414424   1.3191393  -1.0512466
  -0.0158187  -0.4088313   0.1985976  -0.0091317   0.0476041  -0.6925617
   0.6644244   0.6399350   0.2405957  -0.1698228  -0.2523399   0.0003209
   0.2738847   1.2038913  -0.4867186  -0.2557831  -0.3908705   0.0678365
   0.3190447   0.0721542   0.1675250  -0.1669408   0.0285697   1.1967200
   0.7010438  -0.2536319   0.2095361  -0.1093434   0.0899177   0.1950913
  -0.5863056   0.2552300  -0.1434483   0.1018523  -0.2420657   0.6276150
  -0.1128995   0.2122295  -0.0082966  -0.2504154  -0.3404236  -0.6028451
   0.1699317   0.0352180   0.6606890  -0.0273920  -0.0271858  -0.1680140
  -0.2352245  -0.3826277  -0.7023405  -0.2016117   0.0584847  -0.3830828
  -0.3071178  -0.2313971  -0.2285861  -0.4101920  -0.0905245   0.1842809
  -0.1555057  -0.4716157  -0.4031694   0.1017540   0.4054352  -0.1222861
  -0.0544764  -0.9975494  -0.4513510  -0.7267960  -0.1194527   0.1445259
   0.0872157  -0.1998154   0.0153510  -0.1600790   0.1140955  -0.2876303
  -0.3035420  -0.3654955   0.2174467   0.1732725   0.1277525  -0.0818036
   0.4092785  -0.6285802  -0.0224224  -0.6983455   1.0958449   0.9074809
  -0.2906620  -0.0570898  -0.3260070   0.2090949  -1.1034621   0.5274364
  -0.3301197  -0.0196061  -0.4373053  -0.4769946  -0.1841025   0.2813630
   0.3260535  -1.4451969  -0.3429930  -0.1397924  -0.0625095   2.1784097
   0.1563018   0.1157814  -0.0749947  -0.4457578  -0.7291161  -0.6002838
   0.1785938   0.2444633  -0.9089631  -0.0271448  -0.1186656   0.1907619
   0.2648128  -0.5371425  -0.2880404  -0.4939923   0.0120747  -0.0406836
  -0.0767782   0.5645957  -0.1682463   0.2180638   0.4868183   0.4800809
   0.9016253   0.1052443   0.9471400   0.1876597   0.0360894  -0.0914993
   0.7559388  -0.9207432   0.5301539  -0.2798419  -0.1170088   0.0558267
   0.0783229   0.0824358   0.0460410  -0.0146663  -0.0644726   0.1492397
   0.0037583  -0.0582968   0.0861804   0.4249853  -0.0851970   0.2177821
   0.1301685  -0.2322682   0.3630747   0.6685552  -0.2979618   0.2552390
   0.1016507  -0.0037765  -0.0330445   0.9914963  -0.7372248   0.6774495
  -0.9137747   0.3144985   0.6092019  -0.0997259  -0.1409083  -0.0118651
   0.2508260   0.3677280  -0.0734355  -0.2348278  -0.4790473  -0.1389071
  -0.1275927   0.1372400   0.0971716   0.5012375   0.1707899  -0.4765964
  -0.3366791   0.3356869   0.2655426   0.1057724  -0.2237948  -0.0842597
   0.1756386  -0.1808318  -1.0833732  -0.0133223  -0.1944821  -0.3975089
  -0.0910384   0.1559985  -0.3712551   0.0974121  -0.3853642   0.0736563
  -0.6066117   0.7414978  -0.2523082   0.2982723  -0.2065779   0.0963737
   0.0865693  -0.2711526   0.2285224   0.3991777  -0.6449916  -0.4689014
   0.1300488  -0.1348008  -0.1815202   0.8030912  -0.3249029  -0.2309065
  -0.1914215  -0.6073645   0.3890961  -0.0424737   0.0648664  -0.0240998
   0.7895530  -0.5323820   0.2320043  -0.0710456   0.0550309  -0.0508599
   0.2333191   0.0992235   0.0618700  -0.4305915  -0.0466196   0.6896759
  -0.0410368   0.5289105  -0.1945280   0.1559371  -0.0211828   0.0212318
   1.2765015   0.0712077   0.0024049  -1.0134881  -0.1345980   0.2536504
   0.1513930  -0.1100204   0.2868016   0.3138853   0.3165570   0.7369373
   0.5491381  -0.2323186   0.9616578   0.2550759  -0.2656047  -0.0509880
  -0.5648521  -0.5498325  -0.3554047   0.5781520   0.3314450   0.6247252
  -0.0440107  -0.0612411  -0.7652560   0.5610948   0.1691208  -0.3857147
  -0.2728959   0.0148225  -0.5403406   0.2985533   0.1294280   0.1266132
   0.0512305  -0.0867529   0.3076871   0.1286592   0.6204788   0.4089950
   0.0997991   0.0239164  -0.1711107  -0.2425662   0.4064595   0.2379951
  -0.5905054   0.6693673   0.4643001  -0.0396346   0.0559957   0.0043589
  -1.2799310   0.1075845  -0.5402251  -1.2969548   0.6099815  -0.3388594
   0.0789952   0.0749532   0.1309811   0.4683426  -0.7007715  -0.0365293
   0.7634428   0.5298795   0.4008074   0.0594379  -0.0677842  -0.0211090
   0.1859913  -0.1479958   0.2173703   0.5371068   0.1063113  -0.0413064
  -0.0373626  -0.1325588   0.1807766  -0.6073614   0.6646071  -0.6365233
  -0.0939616   0.1984696  -0.3615773   0.1212180   0.1361841   0.3036198
  -0.2727833   0.1342823  -0.3210172  -0.3164490   1.0367305   0.4365426
   0.0842820  -0.1924521  -0.2158521   0.9607624   0.0483439  -0.3602949
  -0.7586981  -0.6549922   0.1543226   0.2123373  -0.1802776   0.0236662
  -0.5283392  -0.9095298   0.0896045  -0.1975689  -0.5839228   0.5330512
  -0.0338996   0.1918732   0.0503677  -0.6880216  -0.3069763   0.1477103
   0.0414037   0.3738321   0.5120322   0.0788392  -0.0305710   0.0476566
   0.4228174  -0.4472911   0.2504188   0.3765686  -0.4591395   0.2580657
  -0.3736768   0.1584124   0.3533639  -0.5041451   1.5296155   0.0801699
   0.7837944  -0.1639784   0.6101725  -0.0319491  -0.0582576   0.1640756
  -1.0834755   0.5987314  -0.2825922  -0.3908257   0.2135078   0.3443044
  -0.0663097   0.0955519  -0.1293423   1.1675879   0.3481250   0.2517895
   0.0530768   0.0039628  -0.4708504   0.0681961  -0.1013468   0.4619530
  -0.2547257  -0.1538863   1.3894399  -0.1133715  -0.3126972  -0.7964108
   0.0687662   0.2210129  -0.0254816  -0.8395478  -0.7381394  -0.4287275
  -0.1972935   0.0641103   0.1200536   0.0491817  -0.3826615  -0.0722694
   0.0062257   0.7984026   0.4288491   0.0723584  -1.5339113  -0.3966042
   0.0582676  -0.0365698  -0.0098154   0.5386506  -0.0319732  -0.3788955
   0.9433335   0.6900338  -0.5204784  -0.0039085   0.2202673  -0.4373731
   0.3872491   0.1663266  -0.4742692  -0.3601704   0.7538806  -0.6352937
   0.1786841  -0.0801016   0.1024283   0.1471181  -0.0568696   0.0661288
  -0.4668455  -0.1861304   0.2436514   0.1382208   0.1873157  -0.2298943
  -0.0065416  -0.1906953   0.4804809   0.1631787   0.3238408  -0.3747953
  -0.2679478   0.0230684   0.3873084  -1.3862035  -0.7522831   0.0840573
  -0.9123780   1.1464201   1.0567021  -0.0169937  -0.2938259   0.2053891
   0.3435859  -0.2031092   0.0927313   1.2551141  -0.0134485  -0.1061557
   0.1946194   0.2843336  -0.1391633  -0.4304185  -1.3757203   1.1296293
   0.9449054   1.2408333   1.1547738  -0.0151766   0.1483762   0.3673497
  -0.2964138   0.0990179   0.2373253   0.2185601   0.1632494   0.3920395
  -0.3103389   0.2090126   0.1056524  -0.1700326   0.4501198  -0.1315141
   0.0132776   0.1150933  -0.3072026   0.3342657  -0.0913321   0.0699760
   0.3558494  -0.4853119  -0.4543765   0.0060608  -0.4147521  -0.2263179
   0.0985982  -0.0324016  -0.0452822  -0.1544833   0.0537742  -0.0292028
   0.9535448  -0.0579865  -0.2913142  -0.1091468   0.2658297   0.2723357
   0.1064949   0.1997930   1.2922299   0.2338638   0.6302218  -0.4138707
   0.3114500   0.0145764   0.3562091   1.0517902   0.1659965   0.8458288
  -0.4042026  -0.3227735  -0.0941269   0.2921333   0.1766493  -0.0124363
   0.3521121   1.0749727  -0.2748586  -0.7842169   0.6720330   0.6306952
   0.2275009  -0.0401683   0.1770896  -0.0926925  -0.3952031   0.5142199
   0.0049205   0.1816840   0.0659263   0.1157803  -0.1945993   0.1319836
  -1.1733838   0.8956887   0.2885273   1.0066572  -0.8010089   0.3179560
  -0.2649055  -0.3057117  -0.1459767  -0.3532655  -0.7559821  -0.2848805
  -0.3545024  -0.1436163  -0.3653685  -0.3148931  -0.1811814  -0.0038124
  -1.1567306   0.3031796   0.2950535  -0.4007103  -0.7640218  -1.1212998
  -0.0988777  -0.1796580  -0.2246025   0.0925733   0.7820701   0.0367536
  -0.1346403   0.7705876   0.3743458  -0.1538634  -0.0696449   0.0614218
  -0.4299649  -0.5405148  -0.6683348   0.6715634   0.1832471   0.4791782
   0.0427151  -0.3086422  -0.1251317  -0.4139990  -0.5097779   0.0271106
   0.9264184  -0.6782089  -0.0697988  -0.0028577  -0.2300295   0.1872461
   0.1061254  -0.6352051   0.3610328  -0.3461671  -0.1749452   0.3105876
  -0.2888784  -0.1241070   0.3589975  -0.0101885  -0.1512435   0.6066850
   0.4312073  -0.2163117   1.2143704   0.0647568  -0.3040889   0.1542511
   0.3484569  -0.5839595  -0.0084511  -0.3127535  -0.1830311  -0.2456161
   0.0436772   0.0937559  -0.0352207   0.9402104   0.8522576   0.1056149
   0.0455433  -0.3205817   0.3970055   0.1728557   0.1004214  -0.3159886
   0.2669388   0.1132635  -0.1386317  -0.2371724  -0.4227027  -0.2388364
  -0.0262943   0.2387092   0.2400693   0.1883051   0.0953845  -0.6502183
  -1.0891905  -0.0543538   0.2602384  -0.3090021  -0.3943846   0.0071036
  -0.5705292  -0.4009324  -0.1644045  -0.2959759   0.1663194  -0.5931530
  -0.1967456  -0.0435027   0.0033528   0.7143314  -0.0860363  -0.8578568
   1.1155263  -0.0941383  -1.1953647   0.0313277  -0.1511975   0.1727677
  -0.4521698  -0.3546712   0.5515926   1.0876582   1.3896985  -1.4357056
   0.1086510   0.0458443   0.0413615  -1.9067125   0.1990601  -0.7769385
  -0.1268874   0.3053431  -0.0694244  -0.0813379  -0.0632546  -0.0846586
  -0.4074580  -0.0953803  -0.4390244  -0.1746859  -0.1150918   0.1575969
  -0.0612360   0.0051759   0.0152531  -0.4004342   0.7414006   0.6041871
   0.2371472   0.2387615  -0.0035260   0.2201202   0.1603058  -0.2086402
   0.1719579   0.0298453   0.3822899  -0.1957669   0.7134858  -1.2106589
  -0.0852350   0.1110060  -0.0842885   1.1790948  -0.2878039  -0.1429415
   0.1944916   0.1540379   0.4030533   0.2671850  -0.3289042   0.0152696
  -1.2199371  -1.1127043  -0.2626890   0.2020284  -0.2596463  -0.2367317
  -0.2381244  -0.2090063   0.1098755   0.4689936  -0.6718678  -0.0228438
  -0.2449253  -0.4303281   1.0334988  -0.2392998  -0.1179387  -0.3113878
  -0.0134944   0.2499816  -0.4116152  -0.0908004   0.9091584   0.2872619
   0.0572435   0.0664894  -0.2482702  -0.5982847   1.0653325   0.9238430
  -0.1435338   0.7088400   0.5176395  -0.0303712   0.2181275   0.0370962
  -0.1242445  -0.3334704   0.0094224  -0.1979189   0.3412449   0.0237204
   0.1260759  -0.1703937  -0.1747043  -0.0470117   0.0665935  -0.1706319
  -0.9775050  -0.5125379  -0.3340421   0.2445463   0.2549251  -0.2028802
   0.1638700  -0.9399970  -0.2599316   0.0652243   0.5811378   0.4536111
  -0.0093015   0.1210943  -0.2634547   0.0347692  -0.0240162   0.0961921
  -0.2167097   0.0979343  -0.8007904   0.1981528   0.1462656  -0.0627531
   0.2761044  -0.0382244   0.1068974  -0.3390712   0.3549626  -0.4138574
   0.0519192  -0.1053313   0.3848250  -0.2311106   0.1464641  -0.3361978
  -0.0510826  -0.5839191   0.3606393  -0.0183609  -0.2368271   0.0960146
  -0.4743741  -0.2351023  -0.9009757   0.5392146  -0.3139981   0.2465731
   0.0242968   0.0237098   0.2064872  -0.3063076  -0.3624327   0.1673406
  -1.2718612  -0.4784442   0.0054030   0.0646625  -0.0331925  -0.0806052
  -0.8234727  -0.4369682  -0.0424875   0.4051941   0.3159674  -0.9241964
   0.1279079   0.0300171  -0.0090885   0.3591274   0.7389717  -0.1927321
  -0.2019410  -0.6654085   0.0474814  -0.0794809  -0.4777420  -0.0136261
  -0.0758364  -0.0568806   0.1911922  -0.0308249  -0.7522761  -0.0987877
  -0.0281247   0.2425020   0.0355616  -0.4458445   0.2495410  -0.3237724
   0.2831595   0.6534018  -0.3418779   0.1998843  -0.0169784  -0.0184522
  -0.1934677  -0.2995915  -0.4407573   0.3844153  -0.1782436  -0.0785457
   0.0255911   0.1079075   0.1537730   0.1451070   0.0775868   0.0680458
  -0.2708476   0.2115431  -0.3051186  -0.3896414  -0.1630352   0.3505503
  -0.0942344  -1.1375483  -0.3619222   0.0953219   0.8049324  -0.2363159
  -0.4453993  -0.2023682   0.2176836  -0.3116035  -0.3110770   0.3289305
   0.0591075  -0.6194629   0.6510637   0.0981395  -0.2377893   0.2239958
   0.1468479  -0.2840508   0.3268105  -0.2898037   0.6554319  -1.2577653
   0.1704678  -0.2808796  -0.2382048   0.4905909  -0.1272058  -0.0075412
   0.6762946  -0.1454852   0.1077579   0.2027627  -0.0982455  -0.0291449
   0.2527332  -0.1881698  -0.0610769   0.1061806  -0.6282345  -0.3353270
   0.1901084   0.1944404  -0.2070777   0.2952530   0.5640416   0.2236434
   0.6009028  -0.1942312  -0.3322229  -0.1948013  -0.2037106   0.2510541
   0.3275587   0.4605300   0.4246958  -0.5421799  -0.4476592   0.6032779
  -0.0571772  -0.1051086  -0.2533324   0.4571453  -0.0693264  -0.6126252
   0.5112393  -0.0216582  -0.7229276  -0.0009176  -0.2921771  -0.1662784
  -0.3757597   0.0082924  -0.1592459  -0.0229532  -0.5397268   0.0297054
  -0.3599372   0.1471488   0.0560632   0.3614340   0.0878563   0.2644978
   0.8354197  -0.1257912   0.2661041   0.2804982   0.2584048   0.3300304
  -0.2647091   1.6793902   0.4874931  -0.9539752  -0.5888510   0.0189133
  -0.2693454   0.1125164   0.1985034  -0.5415089  -0.2386947  -1.1306843
  -1.3710370   0.1055471  -1.5075290  -0.0501589  -0.0905733  -0.0540940
  -0.1046928  -0.1650724  -0.0575181   0.2338298  -0.0310912  -0.4185520
  -0.2015079  -0.3514049   0.2299415  -0.0660497  -1.0626709   0.5193564
  -0.1181164  -0.5286050  -0.1795678  -0.1527676  -0.3264130   0.0733126
   0.1392890  -0.3014258   0.0829477  -0.5986651   0.2205433  -0.3940195
   0.0677658  -0.3694494   0.2213179  -0.2782822  -1.1636130  -0.0823787
  -0.1274896  -0.8511459   0.0206036  -0.1700574  -0.0874994   0.4652473
   0.2998307  -0.2064717  -1.0992083  -0.9707287   0.2214941   0.5693716
  -0.1832392  -0.4062120   0.2868821  -0.3788386  -0.4144787  -1.1622943
  -0.3948869  -0.7347182  -0.1285489  -0.0723167   0.0151611   0.4481119
   0.4833503  -0.1928923   0.9025319   0.0529920  -0.2126933   0.2266974
  -0.1820501  -0.0540062  -0.2051259   0.3194563   0.2407278  -0.2298546
   1.1865639   0.8154472   1.0501780  -0.0019400   0.2814345  -0.2926227
   0.2125620  -0.0360883   0.1114163   0.0184677  -0.1122341   0.2549890
  -0.0873808   0.2424170  -0.2073233   0.4522188   0.0612087  -0.9626062
  -0.4166597   0.6330028   0.7198072  -0.1517461   0.0938637  -0.1447872
   0.0618101  -0.4367300  -0.3545966  -0.1167910  -0.0490875  -0.3043867
  -0.0009777  -0.0933321   0.2313556   0.2988851   0.0715932  -0.5308666
  -0.0822072  -0.0571555  -0.0392640   0.0570419  -0.0827947   0.1405750
   0.6252961   0.4405948   0.6334245  -1.6887376   0.1416035   0.1621720
   0.1189156  -0.2949192   0.2174019  -0.6703402  -0.1534840  -0.3727470
   0.4534674   0.7292317  -1.3223969  -0.0074596  -0.3418677  -0.4341565
  -0.2130905  -0.0090125  -0.5208859  -0.7707985  -0.2112696  -1.6091372
   0.2594759   0.0228621   0.1396827  -0.0131552   0.4036075   0.6044552
   0.1886467   0.1025658   0.4581882  -0.4910886  -0.1622357   0.2342858
  -0.2524276  -0.2573432  -0.4073638  -0.2443899   0.5594710   0.2526825
  -0.0369296   0.1023570   0.1529803   0.0714835  -0.2446673   0.6707647
   0.2697778  -1.3610676   0.0289766   0.1628731  -0.2050125  -0.2839299
   0.4082842  -0.2183108  -0.9723731  -0.4308141  -0.1677516   1.4089503
  -0.1830591   0.2757221   0.0717420  -0.5470976   0.3523531   0.7531896
  -0.2229201   0.2225821   0.0764639   0.2512356   0.3255834   0.0607285
  -0.0748287  -0.9584433   0.5049069   0.3963175  -0.0528900   0.1204720
  -0.0033336  -0.2406330  -0.2348982  -0.7109572  -0.4150380  -0.2134059
   0.6614626   0.0013582  -1.2124360  -0.1874263  -0.3100097  -0.1455226
  -0.7022021   0.0954718  -0.3130233   0.4469670  -0.7013991   0.0288093
  -0.1944433   0.0768433   0.0664571  -0.3195934   0.9789765   0.5595862
  -0.8987451   0.5557947   0.5933992  -0.0127136   0.2519487   0.0338791
  -0.8895350  -0.0695519  -0.9233211  -1.0334196   0.0873706  -0.5358563
   0.1014869  -0.0278939  -0.3351992  -0.5229560   0.0538987   0.5422945
   0.1283341   0.1825422  -0.5128736   0.1446802  -0.2207937   0.3387101
  -0.1370361   0.6538225   0.9899368   0.4021340   0.4034565  -0.9333918
   0.1352571  -0.2272121  -0.0310078   0.1883795   0.6270863   0.4899209
  -0.7734217  -0.1593168  -0.1407850   0.0791800  -0.1154644   0.0789859
  -0.4247619   0.9372024  -1.3225360  -0.7553440  -0.0636311  -0.1157952
  -0.2683028  -0.1602791   0.0436054   0.0988348  -0.6280781   0.4705722
   0.0789969  -0.7532613  -0.2601597  -0.4570527   0.4012271  -0.0745959
  -0.3260865   0.1423274  -0.7240369  -0.8602000   1.3033665   1.4543695
  -0.2088987  -0.2134237  -0.3910995   0.4181383  -0.6710186  -0.3803710
  -0.8322900  -0.0894950  -0.7640254   0.2255061   0.2368651  -0.1523295
  -0.1113331   0.3430529  -0.1544324   0.4220224   0.0713620   0.2108579
   0.0869491   0.0992419  -0.1096147   0.3638886  -0.8380881  -1.0018488
  -0.5148282  -0.9317677   0.4225599   0.0253076   0.0463374   0.0668116
   0.0983152   0.2765950   0.0673234   0.1388757  -0.2120600  -0.0176383
   0.1918512  -0.0631331   0.0338704  -0.5848338   1.2963429  -0.2890066
   0.7031517  -0.8047568   0.4097178   0.1657247  -0.0869680  -0.0629559
   0.4548279   0.0216553  -0.0135628   0.0047690  -0.0085295   0.0457263
   0.2487642  -0.0331255  -0.2009984   0.3926991  -0.3102966   0.7094561
   0.6227018   0.4609226   0.0267820   0.0255309   0.3106503   0.2935938
   0.3086076   0.5105284   0.0800069  -0.3173678   0.5326134   0.2687373
   0.1162722  -0.1578837  -0.4692139   0.5681284   0.2289819   0.1666710
   0.1618555  -0.0754781  -0.2293037  -0.0355529   0.1087151   0.0564651
  -0.3684094   0.6406531  -0.2299705   0.7468338   0.2024891   0.0143753
   0.2072355  -0.4232429   0.1213355   0.2360941  -1.2142924  -0.2255268
  -0.3237972  -1.0910885  -0.2140716   0.1510459  -0.1940708   0.0001334
  -0.4754476   0.7110292  -0.1938632   0.0081333   2.0074505  -0.2501959
   0.0303954   0.0220242   0.1961626  -0.3612006   0.4993782   0.9498471
   0.7024828  -0.4634903   0.4523421   0.1048239   0.1080685  -0.0172676
   0.7829883  -0.3401174   0.1329021   0.1782246   0.6297288  -0.1803198
   0.0709769   0.2095083  -0.1446925  -0.0414717  -0.0158450  -0.7033989
   0.0366458  -0.2291236  -0.2854257  -0.0233304  -0.1998068  -0.3451587
  -0.9830360  -0.2325681  -0.5479577   0.3032328  -0.4270361   0.1433632
   0.0755535   0.1215427  -0.1871088   0.6513739  -1.3778359  -0.0883905
   0.9844430   0.4400358  -0.1818022   0.2572732  -0.1876744  -0.0150955
   1.5005312  -0.5955771   0.4604130   0.1233829   0.1009113  -0.2965804
  -0.0888828  -0.1630892  -0.2109661   0.2530444  -0.3137200   0.1268431
  -0.4995816  -0.6030684  -0.3308098   0.0417396   0.2132845  -0.0622950
  -0.6967469  -0.1796402  -1.2257392   0.4328691  -1.5578656   1.0584005
   0.1437373  -0.0333020  -0.0673492   0.2372544   0.2985247   0.3718445
   0.1101886  -0.4113184  -0.4030106  -0.2960097   0.1688695   0.0318076
  -0.2100206  -0.0718932   0.7979178   0.0718448  -0.4460601  -0.4135828
   0.0768339  -0.1554807  -0.4286813   0.0530178  -0.1064396  -0.4448854
   0.1631208  -0.2322335  -0.4732493  -0.2543593   0.1372619   0.0477024
  -0.8378088   0.3264887   0.1539995  -0.6236248  -0.2364288  -0.4296453
   0.0132100   0.0583882   0.0621687  -0.2725266   0.3014299   0.2284771
   0.0440377   0.4557143   0.1343267   0.0268289  -0.1262451  -0.0721380
   0.1771275  -0.3361331   0.0611367  -0.3419497  -0.1227437   0.0062719
   0.1296396   0.1014675   0.0636492   0.0506108   0.6880573  -0.3212844
  -0.5514269   0.1430183   0.4376244   0.0791669  -0.1867798  -0.0961005
  -0.1196825  -0.6438609  -0.8774630   0.1355999  -0.1554285   0.0609254
  -0.1853881   0.0303388  -0.0743139   0.1157031  -0.6985485   0.2665214
  -0.0182008  -0.4334786  -1.5060456  -0.0006482  -0.0969984   0.1117339
   0.2286430  -0.2146993   0.2696964   0.1380650  -0.9718102  -0.2429080
  -0.0864974  -0.1183573   0.2835763   0.1790834  -0.8928986  -0.2815386
  -0.3738478  -0.0959953   0.2710585   0.0150808  -0.2453707  -0.0349077
   0.5096221  -0.5242505   0.4180372  -0.0779910  -0.3284042  -0.0048984
  -0.2641146   0.0128790   0.0817841  -0.6226941   0.9243738   0.2702652
  -0.8280247   0.0286950  -0.7006490  -0.0920748  -0.1774588  -0.2696642
   0.5170089  -0.6690121   0.0293481  -0.2695014   1.0804132  -0.6425316
   0.0554858  -0.1078535   0.0753038   0.6239930  -0.2369432  -0.3947166
   0.5862949  -0.1958225   0.1987597   0.0988277   0.3059753   0.0759236
   0.0978321   0.2395929   0.7275129   0.0025879   1.1965180  -0.1597911
  -0.4503216  -0.0804169   0.0540225  -0.0942804  -1.6759326   0.0187254
  -0.2900217  -1.0860529   0.2991408   0.0932524   0.1090650   0.2608362
  -0.0264045   0.0545299   0.5104088   0.3009038  -0.1150366   0.1761689
  -0.1446775   0.0968326   0.3773410  -0.4031504  -0.0495009   0.1823080
   0.4503730  -0.0768452   0.9226865   0.2999740   0.0582628  -0.0041754
   0.4827138  -1.0109729   0.1434113   0.2526474   0.0134577  -0.0338592
   0.0657558   0.1523667   0.1051393   0.8574374  -0.3398383   1.0558671
  -1.4756586  -0.5740268  -0.1854379   0.0493594  -0.1484188   0.0490407
  -0.7027912  -1.1532090  -0.4169158   1.0641855  -0.9102659  -0.4189776
  -0.1886294   0.1844808   0.0029368   0.4447461   0.0016364  -0.0088689
   0.6952401  -0.5732392   0.7537161   0.2110267   0.2141225   0.0595927
   1.0872349  -0.3351930   0.5517444   0.8487982   0.9513824  -0.5246184
   0.1132658  -0.1772447   0.1218813  -0.4550636  -0.3719356  -0.2788449
  -0.1278759  -0.1959412   0.7351813  -0.1695055   0.2708831   0.2569041
   0.1300254   0.4997840  -0.8340494   0.0275692  -1.0008061   1.0195021
   0.0547398   0.0379637   0.0232618  -0.2596491   0.0061513  -0.4960479
   0.6694785  -0.2741463   0.7792420   0.0247395  -0.2636672  -0.1384327
   0.0029122   0.3186894  -0.3081076   0.1813669  -0.2249062  -0.0278921
   0.0595728  -0.0144137   0.5762772  -0.6031419  -0.0099306   0.2268116
   0.6329699  -0.5367492   0.1383599  -0.0367840  -0.2471637  -0.0241350
   0.2012117  -0.0898812  -0.6234916  -0.0995069  -0.1747614   0.2256107
  -0.0158619  -0.0816448   0.1496593   0.5771970  -0.4115382  -1.2602141
  -0.0138254   0.2236937  -1.1170824   0.0415877  -0.0755956  -0.1130550
  -0.2934147   0.5853567   0.3072720  -0.0252567   0.3857758  -0.2796328
  -0.0258819  -0.0526888   0.2183878   0.1241088  -0.6860627   0.0136885
  -0.2548319   0.3755413   0.1549586   0.1092416   0.0186792   0.0093544
  -0.3664351   0.2893572   1.4768541  -0.4550046  -0.1193615   0.9345687
   0.2030308   0.2152743   0.1562362  -0.1203420  -0.1349059   0.1927143
  -0.0028717   0.4072445  -0.2408424   0.0763134  -0.0874710  -0.0408868
   0.3741769   1.7090767   0.0905532   1.1265265  -0.6237949  -1.3910229
  -0.3047166   0.1524302  -0.1147686   0.9854333  -0.0866046   0.0000506
  -0.5096552   0.4322081  -0.1668275  -0.2462372   0.0957573  -0.2011816
   0.4641597   0.6818347   0.6840059  -0.0374353   0.6664327  -1.2539851
   0.0570246  -0.0349615   0.0501717   1.2328562   0.6467502   0.7601295
  -0.6798965  -0.7672679  -0.3150247   0.1517313  -0.0926035   0.2298545
   1.0474671  -1.0747223  -0.2338128   0.2958333   0.7274314  -0.5326076
   0.6469288   0.0009448   0.0838019   0.7889960   0.0979857  -0.0955078
   0.4247482  -0.0828302  -0.3590452  -0.1529195   0.1580503   0.1640924
   0.0947677  -0.0501773  -0.7390707   0.0915795   0.2377747   1.0914005
  -0.1986146  -0.0434469   0.0964294   0.6138521  -0.0709222  -0.4904316
  -0.6897914  -0.3099070   1.1402344   0.2048911   0.2329522   0.1483978
   0.6273626   0.0406158   0.2525821  -1.1721951   1.2202507  -0.7053403
   0.0616366  -0.2352124  -0.1157071   0.6908841  -0.0153470  -0.0295589
  -1.3036866  -0.6086053   1.8000086  -0.0978518   0.1759968  -0.0346270
  -0.1078738   0.0681532   0.2281766  -0.5682539   0.8480437  -0.6268792
   0.3852632   0.1285621   0.0514638   0.5536342  -0.2192903  -0.4128229
  -0.0050565   0.5468622  -0.1838282  -0.1603723   0.0046191   0.3105055
   0.1775076   0.3964657  -0.7294325   1.1553881   0.0522822  -0.0995789
   0.2830734   0.1293794  -0.2633217  -0.4114662   0.8741109  -0.4285707
   0.4156383  -0.2052427  -0.5079223  -0.0638356  -0.0445180  -0.2039221
  -0.1885108   0.6549513  -1.3037240  -0.5448276  -0.7221999   0.6763772
  -0.4027272   0.0667043   0.0819550   0.4757722   0.2636657   0.4365722
   1.4493116   0.8852363  -1.9141619   0.0882642  -0.2647827  -0.3096255
  -0.2132958  -0.3099615  -0.7930550  -0.1265209   0.0692476  -0.2405437
   0.0229088   0.0626506   0.0510096   0.6360882  -0.1956379   0.3503434
  -0.2304472  -0.1577743   0.0895745  -0.3063610   0.0233307  -0.2747306
   0.3963440  -0.0506179  -0.3590063  -0.4450465   0.3686214   0.0243008
   0.2199779   0.1855971   0.0126677   0.8166057   0.3113410  -0.2649197
   0.3022391  -0.3880220  -0.2624943   0.0945938  -0.0561374  -0.3247173
  -0.0739911  -0.7898802   0.2155663  -0.1097983   0.1334110  -0.4462407
   0.1118621   0.1688722  -0.2174369  -0.5128706  -1.1217769   0.7814205
  -0.3710592  -0.0644058   0.5130112   0.2112832  -0.0316641   0.1560918
   0.4208946   0.0194983   0.2224249   0.2690222  -0.1714551   0.1808505
  -0.1025069  -0.1314498  -0.0107175   0.0640889   0.8479870   1.8647438
  -0.1547885  -0.3948309  -0.3572714  -0.1486528   0.1324879  -0.1215239
  -0.7021678  -0.2974099  -0.1273431   0.1918455  -0.0016753  -0.1363673
  -0.1652599   0.0512833  -0.6697127  -0.3771963   0.6198987  -0.9704754
  -0.2407128   0.7512900  -0.1616369  -0.0083781  -0.1433021   0.1043991
   1.1423130  -0.1829228   0.6733237   0.0123647   0.3416200  -0.9194602
   0.0886124  -0.1520031  -0.1829205  -0.6309490   0.1074096   0.5341130
   0.1857518  -0.8247261  -0.1579071  -0.2383739   0.2827933   0.0240503
  -1.6274118  -0.5081635  -0.1890306  -0.2426618  -0.1758628   0.0058000
  -0.0573183  -0.1697971   0.1197857  -0.5437315  -0.4544957   0.6229816
   0.7021138   0.4312000  -0.3133492  -0.0308813   0.2457062   0.3320649
  -0.2055919   0.2400772  -1.3350401  -0.2122406   1.5002879   0.6082985
   0.0942245  -0.0834382  -0.0335477  -0.2017459   0.1012631   0.6054030
   0.5186529   0.1687602   1.0635602   0.0923328  -0.0723149  -0.1736229
   0.1324382  -0.0889348  -0.1321257  -0.6504294  -0.4586491   0.0360474
   0.0282127  -0.1457183   0.0586066   0.2431078  -0.7455413   0.7372725
  -0.2288866  -0.0387555  -0.6660033  -0.1180185   0.3990490  -0.0077528
  -0.4169266  -0.6577109   0.0114402   1.0317188   0.5737702   0.2490425
  -0.2627422  -0.0608713   0.0236720   0.1841766   0.4918008   0.4940211
  -0.4387656  -0.0388392   0.2212565   0.4058764   0.0265639  -0.0376002
   0.2045904  -0.1904814  -0.7591731   0.5257113  -0.4636028   0.2321534
   0.2763863  -0.1376215  -0.2377312   0.3547878  -0.4859537  -1.0321666
   0.7744009   0.9689323   0.3298863   0.0063562   0.0204850  -0.1323972
  -0.3044899   0.8784415   0.2628411   0.9268351  -0.1283241   0.1276751
  -0.0626877   0.1034418  -0.0786281  -0.1128367  -1.1126623   0.5142059
  -0.6846186   0.2283326  -0.3132565   0.6620370  -0.1090179  -0.0655018
   0.9813048  -0.1149301   0.3250274   0.2243361  -0.2835388  -0.1755905
   0.0035727  -0.2132531  -0.1923571  -0.5371093   0.4589679  -0.2901470
   0.3795833   0.5527674   0.3490034   0.0761751   0.2818743  -0.2164198
  -0.1948403   0.0925777  -0.0600434   0.0300382   0.3969193   0.2171331
   0.0810234   0.1557338  -0.0248448   0.5301495   0.3971418   0.4804285
   0.5824171  -1.0565662  -0.9566139   0.1873490   0.2001032  -0.0138664
  -0.1529906   0.2404984  -0.0523867   0.7521446   0.3804365   0.2758444
  -0.1139925  -0.1649373   0.2323425   1.0333478  -1.1179526   0.2667221
   0.2733180   0.0054642  -1.4460018  -0.2278017  -0.0021847   0.0010807
  -0.4302644  -0.3078205  -0.0483131  -0.3668350   0.0919927   0.1603701
  -0.3116108   0.0754830   0.0954933  -0.7475863   1.1744496  -0.3634015
   0.3232988  -0.8332277   0.1566212  -0.2976941  -0.1336632   0.2220185
  -0.0694167   0.3004095   0.1609601   1.4372781  -0.5689273  -1.1098643
  -0.1238589   0.3861774   0.3001459  -0.0233750   0.2751901   0.5168439
   0.0769784   0.5643777   0.1051174   0.2743715  -0.0039674   0.0691187
   0.2058483  -0.4015195   0.0572424   0.9153927   0.3885309   0.1286410
   0.2197262   0.2753093   0.1889517  -0.4758040   0.2915564   0.7193264
  -0.9620106   1.0456891   1.8836242   0.2199725   0.0183981   0.0387294
  -0.7398077   0.3053035   0.3663707   0.3896946   0.7111925   0.1339342
   0.2019649  -0.1383442   0.0315810   0.0701023  -1.1139728   0.1983942
  -0.9352670  -0.8543015   0.8312582   0.3943840  -0.0530956  -0.2488632
   0.1350480   0.1912062   0.2673258   0.4379008  -0.5557411   0.2037192
   0.0725986  -0.1144748  -0.0437232  -0.0126920  -0.1037624  -0.2386350
  -0.0803577   0.1223100   0.1108871   0.1031320  -0.1066076   0.1160256
  -0.3005921   0.3372421  -0.3236504   0.2589017   0.0241227   0.5642582
   0.2114365  -0.1427803  -0.0954463   0.6464670  -0.0786452   0.8539511
   0.0137345  -0.0183326  -0.7879876  -0.0400929   0.0936984   0.2130529
  -0.5516318  -0.1220540  -0.3263126   0.3682911   0.1210912  -0.1152951
  -0.1147378   0.0708127   0.1951357   1.3278620  -0.5676077   0.5552919
   0.5618984  -0.0813887  -0.7746705  -0.5346502  -0.1290347   0.1543797
  -0.3407392   0.0196092   0.5437341   0.4781253   0.4741154   0.4426457
  -0.0930349  -0.0968641  -0.1566639  -0.4707881   0.6413366   0.6565775
   0.4379498   0.1333656   0.2261302  -0.3992557   0.0239590  -0.0882897
  -0.4696107  -0.4230979  -1.7371061  -0.6468624  -0.3076177   1.6207303
  -0.0904594   0.2213315  -0.1359134   0.2659908   0.5673324  -1.0912904
  -0.0557411  -0.1210535   0.2342500  -0.2756847   0.0584844  -0.0836224
  -0.4885490   0.3523403  -0.1955292  -0.0800010  -0.0421081  -0.3634768
   0.1101744   0.4008753   0.1519132   0.1590776   0.1674674  -0.1835271
   0.3048015   0.0647919  -0.7583339   0.4001953   0.0106309  -0.1297371
   1.1792899  -0.8658556   0.2555593  -0.3101399  -0.4055707  -0.4725713
  -0.0292060  -0.0611296  -0.1735214   0.3129603   0.3150921  -0.3685423
   0.1705533  -0.0286915  -0.5336153   0.0279950  -0.2057914   0.0555421
  -0.6345572   0.4177023  -0.2075772  -0.4449772  -0.1335103   0.0557458
   0.1157796   0.1787478   0.3187872  -0.6031867  -0.9354371   0.3739125
   0.6959320   1.3143712  -1.0534448   0.3176464   0.1212286   0.0681217
   0.2869629   1.1627551   0.2038217   0.3059485  -0.2806289   1.0139171
   0.0553408  -0.1207862   0.2468406  -0.5429113  -0.5032949   0.0691745
   0.7521556  -0.5467194  -0.8243519   0.0221355  -0.1782451   0.1620704
  -0.3197302  -0.1322308   0.2480769   0.1848024   0.8261459  -1.0076984
   0.1850255   0.0518313   0.0737000   0.6591168   0.1970099   0.1994679
  -0.0144806   0.3273993   0.0438134   0.0150230   0.2993314  -0.2094056
  -0.6858779  -0.3312547   0.0400774  -0.9931707  -0.6201241   0.1398718
   0.0312013  -0.1418360   0.0523993   0.4354780  -0.6255029  -1.1308950
  -0.9702921   0.7742993   0.3968021   0.1500648  -0.0817454  -0.0807062
   0.4450577   0.1620719  -0.2039937  -1.3488703  -0.9082699   1.2385297
   0.0757358   0.1163548  -0.0681157   0.4661361  -0.2185470   0.3118052
   0.5177712   0.2529517  -0.7114342   0.2048719   0.1872389   0.0941569
   0.9783312  -0.4116187  -0.1432028  -0.7628553   0.1354632  -0.7050746
  -0.3114327  -0.3856339  -0.2555961  -0.0090384  -0.2048502  -0.1799513
   0.9352873   0.5364155  -1.0375393   0.0306013  -0.1051933  -0.3819506
  -0.2378030  -0.1018560  -0.3612542  -0.4343199  -0.5741591   0.4558026
   0.1616146  -0.0638379  -0.0538460  -0.4174648  -0.0856585  -0.1150356
  -0.3731079  -0.2471450  -0.1435826   0.0160575   0.0370000  -0.3008681
   0.7714199  -0.4155819  -0.2430775   0.0102648   0.8280763  -0.0132062
  -0.4133151  -0.0501642   0.0146576   0.1020195  -0.3372040  -0.3121399
  -0.6229140   0.7119957   0.6104153  -0.0029507   0.1610806   0.0270136
   0.3419881  -1.3671303  -0.5959412  -0.3001206   0.7400594   1.0109438
  -0.0187996   0.1280960   0.1538179  -0.2712871   0.3710722   0.3200853
   0.5943025  -0.2398676  -0.6480209   0.0389327  -0.0595265  -0.0901547
   0.8189302  -0.0839365  -0.2534725  -1.1457575  -0.3986336   0.0760892
  -0.0284266   0.0731919  -0.4058065  -0.8866556  -0.2108417  -1.1024801
  -0.4424979   0.6058651   0.1232524   0.0541715  -0.3319868  -0.0587983
  -0.1736060  -0.6595093   1.4046656  -0.1837762   0.7181998   0.6902505
   0.1828389   0.3118331  -0.1840065   0.1245615   0.2755230   0.2577178
  -0.3450047   0.3135526  -1.6470457  -0.2077267   0.1593479   0.0718775
  -0.7501350   0.8316120  -0.1865026   0.6942614   0.2848104  -0.5788613
  -0.2269616  -0.0717964  -0.1444534  -0.2677303   0.1911514  -0.0988357
  -0.1534030  -0.9040478  -0.6349834  -0.0388327  -0.0780312   0.3529371
   0.1582114  -0.3694847   0.5954957  -0.0257387   0.7320352   0.9218836
  -0.0657998   0.3473326   0.0421029   0.7298850   0.3132419  -1.9034453
  -0.2812789  -0.1542436   0.2405716  -0.0947994  -0.0030012   0.0924346
   0.2330565   0.2027022  -0.0843529  -0.5116292   0.0483821  -0.5564561
   0.3067464   0.0003411  -0.3411529   0.4641769  -0.1356926   0.3003970
  -0.5165515  -0.0226599   0.1185952  -0.0130631  -0.3270553   0.0539085
  -0.3378859   1.1308967  -0.4561254  -0.3421429  -0.4156607   0.2740771
   0.1612528  -0.0608096   0.0811222   0.2459039   0.1809249   0.5237917
  -0.5449417   0.9517398   0.2757939  -0.2783287  -0.0409249  -0.0008637
   0.1256113  -0.4024250   1.0283796  -0.2164046   0.9292867  -0.2143734
   0.0035737   0.0095070  -0.0237976   0.5237058  -0.5342489  -0.8020997
  -0.1554244   1.2038942   0.1187302   0.0999509  -0.2150451  -0.3392685
   0.7103869  -0.2292453  -0.4653059  -0.4212203  -0.2131432  -0.2225859
  -0.4030134  -0.0425537   0.4201165  -0.3372988  -0.2804202  -0.0294556
  -0.7977073   0.4065668   0.5823142   0.3713821   0.1253493  -0.0548900
   0.4181724   0.4036161  -0.3178567   0.9307886  -0.3076731  -0.1542474
  -0.0433556  -0.1312554  -0.2298398   0.0144280  -0.1796189  -0.2279002
   0.0565254  -0.2343903  -0.2554263  -0.2873369  -0.1059019  -0.0192914
  -0.7732675  -0.0522902  -0.8077992  -0.0579046  -0.3897202   0.3266786
  -0.2530707  -0.1723898  -0.2212982  -0.9042267   0.2234267   0.2577939
  -0.4485834   0.0023612  -0.6048661   0.1676364   0.1955285   0.0143758
   0.6282748   0.5581076   0.3503986  -0.4185632   0.4357190   0.2187925
   0.2943133  -0.2446126  -0.0367864  -0.4408401  -0.2953798   0.2800139
   0.4807075  -0.1850553   0.0704286   0.4462196   0.1740521   0.1317636
   0.0987329  -0.2201673   0.1612153   0.4295640   0.2492860   0.1755756
   0.0776272  -0.2488340  -0.3175271  -0.2054930   0.0635394  -0.3153285
   0.2818721  -0.5740577   0.0078969  -0.0773297  -0.0529095  -0.1330523
  -0.0476161   0.2177842   0.4054551   0.1073183  -0.2400379  -0.1340539
  -0.1008218  -0.3697823   0.1985535   0.0316316   0.0932631  -0.8161831
  -0.3971501   0.2468455  -0.6475647   0.0133121  -0.2438922  -0.0063078
  -0.3931301   0.3970664  -0.3172281   0.1092969  -0.0667350   0.0989689
   0.2495645   0.2028300  -0.0584292   0.3352107   0.3564777   0.6278786
   0.1837610  -0.6113897  -0.2032811  -0.0475498   0.2931309  -0.1244482
   0.0406011   0.3863333   0.4331761  -0.5323320  -0.4886492  -0.6654687
  -0.1518577  -0.2204785   0.2070415   0.2125937   0.7931807  -1.1661919
   0.0815224  -0.5332944   0.2655532   0.1240437   0.0851224   0.2768482
   0.4613712  -0.0705271   1.0566177  -0.0274669  -0.8906221  -0.2661616
   0.2019060  -0.1686419  -0.4811753   0.2652414   0.4457350  -1.5006967
   0.2993140   0.3668826  -0.3905977  -0.1378857  -0.0499326   0.2051138
  -0.3780786   0.1740395   0.7773615   0.1012445   0.0024181   0.1765666
  -0.0231829   0.1096615  -0.1155103  -0.9106561  -0.1675957   0.5680431
  -0.6428886   0.1770156  -0.8604962  -0.1020455  -0.1570401  -0.0400239
  -1.3484639  -0.2000684  -0.2343710   0.1896874   0.3324512  -1.2011711
  -0.0097744   0.0379541   0.2627355  -0.0494827   0.2348676   0.5205265
  -0.2011188   0.1277342   0.1167443  -0.3865496  -0.1765648  -0.2201106
  -0.1909360  -0.5432111  -1.4147120   0.2292368   0.4981518   0.3153054
  -0.2215599   0.1806284   0.2353300   0.0565353  -0.7218398   1.2988110
  -0.4213119   0.7612771  -0.1559358   0.1829722  -0.2141584   0.1922057
  -0.4613409   0.0071033  -0.2776453   0.4699621  -0.6554893   0.1307519
  -0.2016374  -0.0717285  -0.1337142   0.1701743   0.3163268  -0.9221278
   0.7246327  -0.8301940   0.1108332   0.0936683   0.2382369  -0.0931228
  -0.7421812   1.4131887  -0.6260588   0.3782705   0.1049482   0.2661113
   0.1039247  -0.0788327  -0.3187751  -0.3659197   0.1129372   0.0361636
  -0.2505857   0.2191194   0.6402931   0.0598729  -0.0716931  -0.0178672
  -0.1324671  -0.4818967  -1.0821660  -0.4133186  -0.4622266   0.0969070
   0.0157796   0.0577426   0.1811845  -0.0902096  -0.0962824   0.3982576
   0.6416152  -0.1089460  -0.0787835   0.0027432   0.0158897  -0.1829335
   0.1377226  -0.0107054  -0.2959062   0.5252260   0.0859425  -0.5627311
  -0.4013591  -0.1529902  -0.1042778  -0.4739107   0.0795946   0.0468081
   0.1463262  -0.1806984  -0.5481463  -0.0734778   0.0759783  -0.0634587
   0.0107089  -1.0978136   1.5970904  -1.0639239   0.2424450   1.0487506
   0.0316172   0.3944282  -0.0877671   0.4976624  -0.8429551   0.2104369
   0.1631819  -0.1569406   0.3128845   0.0531012   0.1408728   0.0460723
  -0.3839791   0.0041434   0.1849147   0.8644615   0.3936079  -0.3161330
   0.0426741  -0.1188880  -0.0965989   0.9244458  -0.3341784  -0.2189012
  -0.0736866  -0.0361667  -0.1497670   0.1416523   0.3334096  -0.2281373
   0.7830094  -0.2125753  -1.0232126  -0.0529085   0.6904845  -1.1856115
   0.4141679   0.2637578  -0.2017657  -0.2361578   0.0824073  -0.2510816
   0.7680854  -0.1874338  -1.1665486  -0.3047583  -0.0337109   0.0536511
  -0.0150657   0.4357991  -0.6604943  -0.0830739  -0.5862681   0.1231416
   0.0804490  -0.0322120  -0.1078659   1.1425929  -0.6923308  -0.8499062
  -1.1261148   0.8439975   0.8116472   0.2229475  -0.1644951  -0.0082159
   0.0666914  -0.5809450   0.0679721   0.1702865   0.5892037  -0.0014924
   0.3262543   0.0174338  -0.0975905  -0.1198715   0.2156218  -0.0134530
   0.6228398   0.5147545  -0.0265123   0.0865621  -0.1755430  -0.0293473
   0.4554688  -0.4630584   0.0443292  -0.5680949   0.2924227  -0.6581280
   0.2421353  -0.2230143   0.3060622  -1.4585246   0.2530747   0.4432773
  -0.6388703   1.4782748   0.9151023   0.1018565  -0.0625846  -0.3706509
   0.1799431   0.3618049  -1.0151790   0.6644866  -0.7556931  -0.3355372
  -0.0779724   0.1766472  -0.1366918  -0.2436608  -0.0573168  -0.3571416
   1.9349069  -0.8602780   0.4104479   0.2442228  -0.0716546   0.1253495
   0.4259714   0.2142849   1.8379350  -0.4954231  -0.3190335  -0.6523138
  -0.3487535   0.0943531  -0.2118584  -0.2654507   1.4742949   0.4141486
  -0.3175803   0.5847699   0.1463381   0.1146575   0.3230988  -0.2675768
   0.2410141  -0.1809617  -0.2097607   0.1415406   0.0651601  -1.0074654
   0.3022220   0.0713374   0.0112020   0.9780009  -0.7197513  -0.6630335
  -0.0282853   1.1094833  -0.0311673  -0.0459592   0.1695866  -0.2914861
   0.1855535  -0.4565734   0.2706889  -0.7764159   0.4922273  -0.0791815
  -0.1567735  -0.0728306   0.1025038   0.0756741   0.8436550  -0.2554083
  -0.0333977  -0.9231685   0.8780556  -0.1651459   0.2889650  -0.0661874
   0.1172379  -0.2811595  -0.2196091  -0.4733296   0.5791737   0.1257744
   0.0264494   0.1160047  -0.1639802   0.7015447  -0.1994538   0.1858665
   0.0191554   0.2901501   0.7213894  -0.4193780   0.1505047  -0.2307096
  -0.1364276   0.1147691  -0.1287269  -0.0857408   0.0682759  -1.1403938
  -0.0583188  -0.0437396   0.1479288  -0.3671099  -0.1062563  -0.0824932
  -0.4691867  -0.3891833   0.8343692   0.0797347   0.3246393   0.0350549
  -0.5346288   0.8939491  -0.4493750  -0.9508838   0.1968853   0.7390607
  -0.1195211  -0.1846771   0.1601113  -0.1005952  -0.0599552   0.3904913
   0.0879162  -0.1645424   0.0259320  -0.1135333  -0.1566421   0.2158798
  -0.8407817  -1.2198908   0.4970859   1.2960648   0.4309771  -0.5229604
   0.3147284   0.1374874   0.3372096   0.2370426   0.8400069  -0.7616595
  -0.4701309   0.3321957   0.1692098   0.0769503   0.1246718   0.3251072
   0.8738509   0.1875202   0.9338023   0.8487728  -0.3522890  -0.1194446
   0.0118229   0.1717749  -0.2567129   0.1653940   0.0799825   0.1263484
   0.1669980   0.1235777   0.4405219  -0.0940310   0.2339466   0.2143071
  -0.9832499   0.3448399   0.1000846   0.3637373   0.0843994  -0.2211613
  -0.2631776   0.4985111   0.0032417   0.4115413  -0.0805266   0.6715590
  -0.3224294   0.3187617   0.0366386   0.1409598   0.0701433   0.1906395
  -0.1533370   0.1673186   0.1355060  -0.1051934   0.0587417  -0.0546596
  -0.0431158   0.0663568  -0.0309026  -0.3060236   0.1075573   0.0317217
  -1.6036659  -0.5508536   0.9306268   0.1688351  -0.0790751  -0.2531911
  -0.8822191  -0.2460399   0.8101756  -0.1577668   0.3888565  -1.0546107
  -0.1017061  -0.1606761  -0.3668147  -0.1394135   0.1530233  -1.1591425
   0.6124319  -0.0434707  -0.0120798   0.4788764  -0.0350385  -0.2320945
   0.4760042  -0.4515279  -0.4684607  -0.1479731   1.0956249   1.5524819
  -0.2764956  -0.2377936  -0.1200752  -0.1499000   0.0801732   0.1871210
  -0.0262748  -0.1657630  -0.1063243  -0.0026447  -0.2368151  -0.3761959
  -0.3215509  -0.4866810  -0.5977502  -0.5096420  -0.3551501   0.7865989
  -0.1491939   0.1183359   0.0384950  -0.5511731   0.3230494   1.8036158
   0.2153799   0.2902828  -1.3103580   0.2072435  -0.3874929  -0.0907855
   0.1512157  -0.5299373   0.0421782  -0.3690720  -1.1709343   0.0511502
  -0.0215275  -0.0604447  -0.2578165   1.3584566  -1.3189776  -0.5220217
   0.4386892   1.0354297   1.0796945  -0.0234178   0.0571533  -0.0067361
  -0.3343622   0.1311854  -0.4244062  -0.5156893   0.4323041  -0.5883395
  -0.1280233  -0.4015558  -0.2861838  -0.4186152  -0.7528132  -0.0762806
   0.1607786  -0.5483371   0.0197320  -0.1022386  -0.1743154   0.2790138
  -0.0823892  -0.1899898   0.3418460  -0.0828524  -0.1926794   0.3412688
  -0.3285888  -0.1242452   0.1050695   1.2167313   0.3099887  -0.1543318
   0.1201882   0.3720504   0.5371627  -0.0097066  -0.0531578   0.1971018
   0.0541901  -0.0807082   0.5060578   0.5989942   0.1268178   0.0210187
   0.1277418   0.0674709  -0.0372823   0.1098714  -0.0661764  -0.8819633
  -0.0061123   0.2123136  -0.0333514   0.1017276  -0.0798578  -0.1201353
   0.0209780   0.3878519  -0.2468431   0.0271864  -0.3492379   0.0410743
  -0.0219820  -0.0324375  -0.1400289  -0.2356072   0.0195474   0.1538335
  -0.1325098  -0.1564196   0.5805037   0.3049421   0.1970597   0.0591984
  -0.8206161   0.1015538   0.1241762   0.4220750   0.1740044   0.0881378
  -0.1994683  -0.2054969  -0.0545998  -0.0958948  -0.0187840  -0.0881003
  -0.2803547  -0.1866449  -0.3161500  -0.1042381  -0.1274510  -0.2921799
   0.3407730  -0.8267135   0.4176306  -0.6153720   0.2897627  -0.2903071
  -0.1222232   0.0503269   0.0644381   0.2815826  -0.4414316  -0.2389721
  -0.4469849   0.2410358  -0.8028544  -0.2401267   0.0612328   0.1430515
  -0.2437774  -0.4790783  -0.0998504  -0.1535593  -0.3718419  -0.2539906
   0.2186739   0.0961111  -0.0406033   0.3228281   0.9218286  -0.1192324
  -0.9934956  -0.1534933   0.3272794   0.1256944   0.0216082   0.1983219
   0.3917529   0.6720657  -0.1907372   0.9116377   0.2326231   0.8499732
   0.1014134   0.2205228  -0.0260668  -0.7651584  -0.1431447   0.2042629
   0.3254643   0.6517971  -0.3526763   0.1104478   0.2534433  -0.2049737
   0.6552412  -1.0749976  -0.8013229   0.3363295   0.1030589   0.3855528
   0.0886338  -0.2492210  -0.3303361   0.0493328  -0.8275434  -0.1295388
  -0.3570543   0.2736730  -0.9926022  -0.2124311   0.0828258   0.0157172
  -0.6015499  -0.0249377  -1.6078571  -0.5296175  -0.3558911  -0.3056713
   0.0193419  -0.2881523   0.2001099   0.5592676  -0.5380197  -0.3622650
  -0.1300927  -0.0768238   0.2608498  -0.1251160  -0.0280386   0.0514023
  -0.8951852   0.7666624  -0.2987844   0.0558824  -1.0705277   0.6310301
   0.0881376  -0.0218789  -0.2874791   0.5297369  -0.4817785  -0.2829429
  -0.2965972  -0.3386484  -0.0132573   0.0345212   0.1975255  -0.0386942
  -1.1290672   1.2144097  -0.6002864   0.5389933   0.8658346   0.6302554
   0.0100602   0.1937173  -0.1925062  -0.6788108   0.1709467   0.5100651
   0.1943839   0.2120291   0.2780453  -0.1055241   0.0468360  -0.0417175
  -0.1552568   0.0742242  -0.7003877  -0.1493462   0.2759368  -0.0046878
   0.0827450  -0.1092059   0.1633874   0.0649182   0.4337797   0.5739917
   0.1664727   0.0496419   0.3626269  -0.3987300  -0.1806025  -0.2656848
   0.3009465   0.0730892  -0.9108308  -1.6749917  -1.2068899   1.4273017
   0.0835340  -0.1835373  -0.0738668   0.4439916   0.0567567   0.5101492
  -0.3630367  -0.3090012  -1.1062145   0.1198858  -0.1429278  -0.3588315
   0.7876052   0.2730612  -0.3891333  -0.1809762  -0.3014948  -0.3505453
   0.2473348   0.1502905   0.0841004  -0.0352176  -0.4647084   0.8468244
  -0.4268781   0.0967779  -0.3323502   0.0368593  -0.0406470  -0.2530702
  -0.5338850   0.2811854  -0.4513279   0.9952082  -0.0071286  -0.0641758
   0.1964487   0.1141278  -0.0912020   0.4192520   0.3548905  -0.1002022
   0.2333967  -0.0887626  -0.0532874   0.3372555   0.0154853  -0.0634813
  -0.0107009  -0.0917027  -1.0214598   0.7947640   0.0649892  -0.8950067
   0.2392451   0.1241334   0.1021934   0.2655779   0.9913954  -0.0837810
   0.2436120   0.8595550   0.1101582   0.0606319  -0.3185943  -0.0894304
   0.7674432  -0.1333291   0.3464887  -0.3066280  -0.7612398  -0.1453484
   0.0253887  -0.1229550  -0.1630197  -0.1233964   0.1971770   0.2844034
   0.1036087  -0.2011892  -0.1090270   0.2235789  -0.2157064   0.2628212
   0.0902617  -0.4772957   0.4727699   0.0817172   0.6523010  -0.6307491
  -0.1411260  -0.0870658   0.1275931  -0.3274087  -0.1169175   0.3146632
  -0.1767914   0.0229687   0.0676458  -0.0599504   0.3544641   0.1515011
   0.0401149  -0.4283878  -0.4435491  -0.0559866   0.3475789   0.0071592
   0.1152738  -0.2714697   0.1215782   0.1826753   0.0924277   0.0856870
   0.9255531  -0.5988592   0.0439176  -0.0078390   0.4336592   0.2015739
   0.4075983  -0.3495181   0.8500092  -0.2222064   0.8491676  -0.1524260
   0.0106924   0.1288861   0.2583428   0.6173439   0.2251380   0.0945551
  -0.1672531  -0.1144974  -0.1621389   0.0464049  -0.0753118  -0.1164136
  -1.3385653  -0.4814775   0.6953433   1.1718812  -1.1018112  -0.2821162
  -0.0834043   0.0169900  -0.1711895  -0.2024606  -0.4879950  -0.9645392
   0.0590019   0.8873720  -0.2686041  -0.1286427  -0.0197090  -0.3290327
   1.0925149   0.7513890   1.6882925  -0.0558606  -0.2404973   0.6528990
   0.3164931   0.2001829  -0.0486680  -0.1008147   0.1839612   0.3815994
   1.3321434   0.0155331  -0.2548276  -0.0132861  -0.0833493  -0.1621829
   0.0907260   0.4194669   0.3886295   0.3112361   0.3497601  -0.3525544
  -0.0257301  -0.0638411  -0.0102438  -0.6584533  -0.3439026   0.9800760
   0.2443322   0.0655741   0.5871696   0.2693034   0.0741101   0.2035402
   0.6401805   0.4736470  -0.6136474   0.5245282   1.0455103   0.7678513
   0.0637279  -0.4049761   0.0530080   0.1194297  -0.5701681  -0.0636698
   0.0151568  -0.3464168  -0.2984619   0.0552751  -0.1201902  -0.0148702
  -0.5810485  -1.1267063   0.0903862   0.6714956   0.5460330  -0.6004677
  -0.2023178  -0.2652943   0.1351522   0.2689767   0.2095742  -0.3913349
  -0.3431753  -0.6192183  -0.7093291  -0.2236910   0.0161146  -0.1825133
   0.5124634   0.2569473   0.0716400   0.0942372  -0.3343360  -0.8104858
  -0.0565454  -0.2815455  -0.1539978  -0.3804058   0.5720577  -0.2718219
  -0.0704683  -0.5176132   0.0234223   0.2105184  -0.1937967  -0.1402255
  -0.3638172  -0.2494523  -0.9338785   1.1229419  -0.1088657  -0.5044747
  -0.2111447  -0.0648194   0.1921005  -0.4564289   0.1978268  -0.2400225
  -0.5081503   0.2737911  -0.5133687  -0.0279185   0.0119261   0.1324797
  -0.2308414  -0.1960610   0.2510211   0.0309827  -0.2886072   0.5267244
  -0.0098454   0.3650372  -0.0640905   0.0465392   0.7140790   0.5013484
  -0.0358042   0.1092356  -0.0331037   0.1064257  -0.3986553   0.3639853
   0.2745682  -0.5109692   0.7803137  -0.0323573  -0.6442845   0.1424772
  -0.0273935   0.0069011   0.1685856   0.6669009   0.2162163  -0.0098042
  -0.9872626  -0.1015600  -0.1886733   0.1153548   0.3244814  -0.1979122
  -0.5400721   0.9762536   0.1065976   0.9578193   0.1341122   0.1917183
  -0.1507043   0.1814170   0.0211138  -0.0558702  -0.0820939  -1.7226409
  -0.4754668  -0.0331062   0.3473736   0.1408610   0.1107382   0.0537840
   0.4093189  -0.3231309   0.4787920  -0.2934120   0.3621746   0.2621579
  -0.0020593   0.0238960  -0.2601985   1.0930442  -0.2282373  -0.8490617
   0.3636181   1.2593004  -1.1655776  -0.1579832  -0.2348952   0.2184881
  -0.1423780  -0.3020041   0.1136656   0.0009840   0.2495537   0.5678900
   0.1121812  -0.0398172   0.1317745  -0.7570249  -0.0855529   1.0840753
  -0.5968682   0.4165947  -0.9514061   0.0150826   0.0568033  -0.1339692
   1.9821303   0.0004189   0.9177730   0.0672717  -0.4359081   0.1460171
   0.1150206  -0.0116020  -0.0646081   0.2563855  -0.0547770   0.8455193
   0.2098770   0.0108483   0.4314270  -0.1841719   0.0085751  -0.1849857
  -0.1432863   0.0666781  -0.2698542  -0.6939394  -0.2320386  -0.5130815
   0.0024005   0.2135758   0.0520216  -1.3378918  -0.6027771   0.3348466
  -0.6837833   0.1708514  -0.1953569   0.3870030  -0.2287981   0.2578180
  -0.3650894   1.0864499   0.5255853  -0.9779701   0.8770557   0.6845341
  -0.1916013   0.1087677  -0.2504221  -0.8339668   0.2971695   0.0244463
   0.2574461   0.3379322  -0.5138947  -0.1092896  -0.0744870   0.0462603
   0.5622496   0.0261538   0.2965843   0.3605742  -0.1077034   0.0315063
  -0.0208292   0.1524122   0.1016287   0.4856207   0.6374760   0.6460547
   0.4401351   0.4723383   0.3046848   0.3636048   0.2646525   0.2519597
  -0.3483316   0.1371269   0.7293019   0.4189854  -0.2292363   0.3383711
   0.0663246   0.0503572   0.0179053  -0.2193292  -0.2307277  -0.4905639
  -0.6649500   0.2371339   0.3962161   0.1722347   0.0729659   0.0850656
   0.2402378   0.0504441   0.2241949   0.8337551  -0.0856528   0.6588253
   0.0633626   0.0125771   0.0831295   0.8495355   0.2373528   0.4994887
   0.2677026  -0.7460822  -0.3883634  -0.0381743  -0.0081332   0.0557816
   0.2302383   0.3416925   1.3447431  -0.1895864  -0.3650184  -0.2712492
  -0.0019001   0.1256345  -0.0745287  -0.8795222  -0.6986371  -0.0185599
   0.5339011  -0.0050816   0.9570174   0.0126690  -0.0286967  -0.0378650
  -0.5031383   0.1601782   0.1469793   0.8144580  -0.6579534  -0.2164721
   0.1652236   0.2435775   0.0255167  -0.2199291   0.5536926  -0.9585740
   0.3672796  -0.1184123  -0.1218168   0.0656546   0.1098590   0.0388040
   0.8947285   0.1998048   0.3276895  -0.1049243  -0.2711838  -0.0604163
  -0.3506934  -0.2478471   0.1686551   0.1254525  -0.7390698   0.1997453
  -0.8968529  -0.6852494   0.0450069  -0.5136193   0.0420083   0.2882875
   0.4155320  -0.4213583   0.6682494  -1.4871002  -0.0627907  -0.4143927
   0.0880755  -0.2824469   0.0190658   0.6842322   0.5461430  -0.2733476
  -0.6484667  -0.1173004   0.1668631   0.2532299   0.0424212  -0.0036700
   0.1307526   0.0228687  -0.3060170   0.7280005   0.9516834   0.5115513
  -0.1225616  -0.0921155  -0.2238130  -0.2340659  -0.0320624   1.2191513
  -1.3172001  -0.6738898  -0.8255388   0.0765582  -0.0077601  -0.3471302
  -0.6645077   0.2043882  -0.5855133   0.2097766   0.9383749  -0.4817613
  -0.1696548   0.2377447  -0.1450799   0.1569173   0.1737219  -0.2053162
  -0.7378225   0.6471411  -0.3834738  -0.3988224   0.3763205  -0.1958583
  -0.8377416   0.5397135  -0.0625480  -0.8002811   0.7563395   0.1356653
  -0.0586290   0.0998772  -0.0676321  -0.5396847   0.6738030  -0.3122302
   0.1141823  -0.0527698  -0.1315211  -0.1186745   0.1694318  -0.0068580
   0.4921001   0.1895169   0.2106643  -0.5871721   0.3340638  -0.0840802
   0.1082543  -0.1335164   0.0030594  -0.1079444   0.3140831   0.1031136
   0.2540539  -1.0543553   0.3153868   0.1451772   0.0991302   0.0515096
   0.6240318   0.4049990  -1.4262513   0.1966273   0.1604374   0.1649197
   0.1696613   0.1312844  -0.0194017   0.5983066   0.8788450   1.4676527
   1.0247922  -0.3020826  -0.6544717  -0.2917117   0.0937647   0.0910121
   0.2997623   0.1637202   0.2717213   0.8662116  -0.8108813   0.8163578
   0.2601730  -0.1894043  -0.1167168   0.1655210  -0.2542279  -0.8457147
   0.1788610  -0.3935427  -0.4041273   0.1460017   0.1317789  -0.1219083
   0.2861221   0.3257090  -0.1102558  -0.1821080   0.2641396  -0.3423868
  -0.2033030  -0.1648380   0.1469248  -0.5385774  -0.7876618   0.2379037
  -0.1624875  -0.1211116  -0.0061174  -0.1944096  -0.2860193  -0.2700627
  -0.0348686  -0.5125640  -0.3911515  -1.2357859   0.5529257  -0.9617284
   0.3836039   0.1339557   0.0446285   0.3954214  -0.0367135   0.1265525
   0.0802273   0.9415080   1.2884020   0.5085384   0.1226740  -0.0500709
   0.7012557  -0.4446911  -0.5849081  -0.0259215   0.5481331  -0.4720926
  -0.0455320  -0.0068277  -0.0730959   0.6362134  -1.1573943   0.1772914
   0.8307445  -0.3084831  -0.3199101   0.2146066  -0.1304230  -0.3223307
   0.4142021  -0.3077026   0.1764994   0.2445855  -0.0815876  -0.1634010
   0.2705116   0.2126100   0.3481217  -0.1051716   0.7518970   0.6276347
   0.5646837   0.3824756  -0.7150609  -0.2231173  -0.2114499  -0.1184316
   0.4944683  -0.0029379  -1.3577601  -0.9454910   0.0145186  -0.9592808
  -0.1502536   0.0810538   0.0835343   0.6834401   0.3313156   0.8241464
   0.4938729   0.2839875  -0.1050845  -0.1218267   0.0467268  -0.0892301
   0.4690293  -0.0537676  -1.7127700  -0.7972973  -0.8237254  -0.2997421
   0.0810214   0.2671251   0.1764236   0.0927949  -0.1099018   0.0848964
   0.5767008  -0.5763074  -0.3545789   0.2501137   0.0538968   0.2516821
  -0.3499237  -0.8846565  -0.1094235  -0.0579407  -0.4650386  -0.1061467
  -0.1971555   0.1990166  -0.1104621   0.6418340   0.2807651   0.5557086
  -0.6152168   0.4030469  -0.6860027  -0.3327580  -0.2853308   0.1943527
  -0.2307524  -0.3183662   0.1235897   0.2886082   0.9336016   0.9523542
  -0.4077631   0.4040170  -0.1381208   0.1151141   0.8649292  -0.5126130
  -0.4708908   0.7920888  -0.7998105   0.1666522   0.0777987   0.0632478
   0.4442547   0.3281895  -0.0106163   0.1766780   0.0316927   0.6688517
   0.0357543  -0.2722959  -0.1004248  -0.2177589  -1.1350094  -0.4508149
   0.2138720   0.0456917   0.0560307   0.1101560   0.3551388   0.0653026
   0.1438738   1.2279012   0.6515103   0.6491189   0.3883160  -0.7031457
   0.0403894  -0.2058799   0.0651050   0.3253068   0.1641405  -0.0347492
  -0.2484994  -0.8056375   0.2142027  -0.0113910   0.0818414  -0.1772884
   0.8034966  -0.0229240  -0.6425200  -0.1664349  -0.0688424  -0.1244071
   0.1732508  -0.4026624  -0.0304925  -0.3995788  -0.0663424  -0.2446240
   0.7864442  -0.7183028   0.0560158  -0.2684552  -0.0517999  -0.0790504
   0.9257854   0.2485895  -0.3700040   1.1192565   0.5077326  -0.3564430
  -0.0280173  -0.1941141  -0.0457436  -0.1226730   0.2544134   0.6163154
   0.5780719  -0.1225628  -0.1819559   0.0868669  -0.0118046   0.0373218
   0.7066338   0.2794219  -0.0413849   0.0394693  -0.6481926  -0.4604927
  -0.0436097   0.0919161  -0.0230676  -0.0561945   0.6564375  -0.4407570
   0.1876391   0.6404825  -0.1905546  -0.2645583   0.2095087  -0.1557048
   0.1495869   1.0318774  -0.2521768  -0.4851688  -0.1832402  -0.1612019
   0.1516011   0.1265901   0.1467625  -0.3710982  -0.3737076  -0.3001854
   0.1432171   0.1097294   0.5409200   0.4039529   0.1133975   0.1776615
   0.6470824   0.4031344   0.7030196   0.6848963   0.4079087   0.6016091
  -0.0218037   0.1928993  -0.0902619   0.8844989  -0.8653851  -0.3018091
   1.1827495   1.1787475   0.6445506   0.3006749  -0.0143969   0.1750290
   0.0679271   0.1022779   0.2122496   1.6791779  -0.2207283   0.5297203
  -0.1241327  -0.1043162  -0.1244045   1.7804857   0.7184815   0.0818224
   0.0735560   0.0392707  -0.3696942  -0.2522039  -0.1583110   0.0864356
  -0.6059361  -0.3763610   0.0716975  -0.0348812   0.0142894   1.3909761
  -0.3396514   0.0134133  -0.0008696  -0.0326162  -0.5747006  -0.0311719
   0.5230399  -1.2991164   0.0293629  -0.0404796   0.0147264   0.2823162
   0.6850345   0.3748162   0.8925845  -0.8724133  -0.2385671  -0.4525946
   0.1319414   0.0192729  -0.0556023  -0.4318032  -1.1969985   0.1219026
  -0.2883089  -0.1651070   0.2362877  -0.0404942  -0.0528659  -0.1227750
  -0.3854995  -0.4634744  -0.7538700   0.8773855   0.3753667   0.2778301
  -0.0438038  -0.0986219   0.2242292  -0.6774059  -0.5879808   0.1347115
  -0.0180790  -0.2717315   1.1901332  -0.2121372  -0.1142996   0.0388981
  -0.8285978   0.8129867  -0.1176359   0.6970843   0.4134819   0.1570659
   0.1206661  -0.0677043   0.2330237   0.2849573   0.1267659   0.0024073
   0.0805900  -0.0535755   0.0830912   0.3280283   0.1007646  -0.0367212
  -0.2386235   0.0861254  -0.2404124   0.9649402   0.0469564   0.0113875
  -0.2404303  -0.0888602   0.0572352  -0.0846016   0.2583638   0.2555386
  -1.0512434   0.1436279   0.3592241   0.0060138   0.2219998  -0.0095656
   0.3725503   0.2394654   0.8569797   0.4851623  -0.2675330   0.4506830
  -0.0945822   0.0385553   0.0959773  -0.6426049   0.2451711  -0.9524351
  -0.0369746  -0.3063296   0.5693436   0.1194547  -0.2495759  -0.1165357
   0.3506635  -0.5270153   0.4247523   0.3848403  -0.4103795   0.6859998
  -0.0136820   0.2611820  -0.1460711  -0.1792486  -0.5842996  -0.1658690
   0.1922939   0.6595032  -0.0830973   0.3062695   0.2281294  -0.0131930
  -0.6135360   0.2815519  -0.5393442  -0.6027028  -0.2535656   0.3135231
  -0.0366853  -0.1441707   0.1958860   0.3035076   0.4149617  -0.7664296
  -0.7535132  -0.7514569   0.3295559   0.2906119  -0.0149448   0.2532240
  -0.4881780  -0.4112054   0.2975399   1.2012051   0.4485603   0.2015089
  -0.0716890  -0.1234858  -0.0413248   0.0190097  -0.4814262   0.8769576
  -0.5783779   0.6144395   0.0585377   0.0149531   0.0631023   0.0771683
   0.2708564  -0.7324204  -0.2188170   0.0202890  -0.7754451   0.2783245
   0.0886592   0.1507491   0.0457840   1.0912324   1.2989900  -0.8155705
  -0.6486999   0.6071907  -0.6435658  -0.2042259   0.0698865   0.2365961
  -0.1303181  -0.2978606   0.5038392  -0.4969296  -0.1745918  -0.2853349
  -0.0142839   0.2329881  -0.3805044   0.1224972   0.1206372  -0.1244498
   0.0964001   0.5207452  -0.3290199  -0.0014495  -0.2183503   0.0287521
   0.2615461  -0.0179966   0.8555375  -0.5145171   0.4515024  -0.0239671
  -0.3311280  -0.2921334   0.2610371  -0.2684470  -0.7816111   0.5201545
   0.4388526  -0.7735724   0.8257255   0.3167746  -0.2130809   0.2339286
  -0.1012603  -0.0898133   0.6091407  -0.3431817   0.1452529   0.3386222
  -0.0106939  -0.1395355   0.2917100  -0.2640212  -0.9280150  -0.0743250
   0.0245909  -0.2228743   0.2451138   0.2854610  -0.1147212  -0.0064861
   0.7678248   0.8461365  -0.4449208   0.5553696  -0.0882596   0.1255594
   0.0256345   0.3377903  -0.1063796  -0.0804335   0.7806196  -0.6772483
   0.2104502   1.1153731  -0.4488417  -0.1239897   0.1300047  -0.3471002
  -0.5869720  -0.0873220  -0.3449424  -1.3777971  -0.1677271   0.1898656
   0.0793952  -0.2634692   0.1134687   0.0946103   0.1940771   0.0786481
   0.0462619  -0.2821174   0.1645751   0.0062108  -0.0235786   0.0352395
   0.1224214   0.2939112   0.3542739   1.1100487   0.7751109   0.2663817
  -0.0399516  -0.3250148   0.1732146  -0.5327007  -0.5504905   0.2498275
  -0.0705994  -0.3500756   0.1932566  -0.2218493   0.3186335  -0.0827349
  -0.0210890  -0.6079854  -0.0000425  -0.0664004   0.8496431  -0.7636604
   0.2662964  -0.0515440  -0.0021692   0.1191899  -0.3689887   0.1438251
  -0.6245509  -0.4731389   0.1317452  -0.1910207  -0.1899130   0.0597420
  -0.3635775  -1.5320378  -1.0099201  -0.1049192   0.1665917   0.1016871
   0.3314949   0.1369393   0.2001568   0.1681400  -0.2803117  -0.9049587
   0.3383260  -0.0042154  -1.0413290  -0.0806818  -0.0823952   0.0924921
  -0.0858174  -0.2017044   0.2742912   0.1046596   1.2782659   0.2658315
   0.0177209   0.0901663  -0.1178484   0.5408350  -0.1224814  -0.3646611
   0.0072558   0.2802682   0.7884896   0.1152642   0.1907352   0.2045004
   1.0229964   0.6736899  -0.0758596  -0.1214139  -0.3483631  -0.6742059
  -0.2142012   0.2104957   0.0285388  -0.5290322   0.2811192   1.2412593
   0.6014944  -1.1014886   0.8666888  -0.1661753  -0.3867830  -0.3175372
  -0.2632087   0.0102824  -0.4267797  -0.0315546  -0.7925884  -0.0523116
  -0.1447436  -0.0387632   0.1923191   0.1147694   1.0500399   0.1797094
   0.1199238  -0.6994161   0.5708302  -0.1666638  -0.0320118  -0.2702822
   0.1600461   0.7689033   0.3622464  -0.0155356  -0.9724799  -1.7676528
   0.0414906   0.0564596   0.0675544   0.3768609  -0.2520844  -0.1618903
  -0.1567596   0.4347033   0.0494775  -0.1077783   0.1665645  -0.1539642
  -0.6999425  -0.4713123  -0.1063250   0.4561775   0.0890932  -0.4855047
  -0.0819750  -0.0944025  -0.0076333   0.3637616  -0.5204615  -0.2481554
   0.5177438  -0.3545268  -0.2926411  -0.1355055   0.0510593  -0.3412812
   1.1087364  -0.4221589   1.6691322   0.9515568  -0.0146275   0.4325528
  -0.1659064   0.3241199   0.2646199  -0.7185638   0.3344593   0.6867981
  -0.6691272   0.5659218   0.6898339   0.0832345  -0.2558688   0.1972227
   0.3366568  -0.1468646   0.0157173  -1.0197748  -0.7358036   0.9929042
  -0.0781980  -0.0164538   0.0912957  -0.8893694  -0.6670542  -0.3036787
   0.5678252   1.5147790  -0.5130526  -0.0486254   0.0731494  -0.1069875
  -0.5302009  -0.3793468   0.3511109   0.0356949   0.0357640  -0.0008886
   0.0275284  -0.2737500  -0.1622065   0.0610455  -0.5134015  -0.1307127
   0.0046014   0.0521974   0.0309473   0.0513746  -0.2669207   0.2632195
   0.3880867   0.0429709  -0.6724368   0.4582650  -0.6601798   2.0366128
  -0.0806520   0.0586788  -0.0093595   0.4200336  -0.0863940  -0.2135872
  -0.1871962  -0.0966213   0.1844378   0.1857543   0.1985917   0.2701852
   0.4364708   1.3743862   1.2890775   0.1729272   0.0337016   0.1423640
  -0.0516511  -0.2500716   0.0500564  -0.0049631  -0.2156726   0.2466112
  -0.6035086  -0.0855230   0.5103665   0.1006196   0.2369504  -0.1627826
   0.6688903   0.2141908   0.0125669   0.6244344   0.0880922   0.1351729
  -0.1275533   0.2713069   0.0341635   0.6956063  -0.0315138  -0.2075831
  -0.8772801  -0.0310149   0.3644517   0.3009096  -0.2809072   0.3433033
   0.3608452   0.0870846  -0.8035502  -0.0544250  -0.2182031  -0.1157503
  -0.1182402   0.1547854   0.0499954   0.5106295  -0.3136394  -0.1681179
  -0.6494018  -0.0114063  -0.4798266  -0.0621846  -0.0338366  -0.0238201
  -1.9284559  -0.4610157   0.7341149  -0.1926984   0.8935980  -0.9616569
   0.0864154   0.0078327   0.0756373   0.1174523  -0.0364638   0.0827344
   0.8155666  -0.8606728   0.5027355   0.0760131   0.0796380  -0.0891405
   0.6576072   0.0023692   0.2494602   0.4528325   0.1012872  -0.2021928
  -0.0306406  -0.2960864  -0.1513825  -0.1910670  -0.7043947   0.3445357
   0.3028329  -0.0004374   0.8048719   0.2885055   0.0646304  -0.0246158
   0.1174927  -0.8496353   0.4037792   0.3311446   0.0591093  -0.9946920
   0.0352847   0.2024593  -0.2336083  -0.7935382   0.9367610  -0.6634902
  -0.7325693  -0.6577606   0.6375589  -0.0717298   0.0584423  -0.3980007
  -1.0347141   0.0146678  -0.2247394  -0.0159684   0.1178482   0.4557075
   0.1253232   0.0786283  -0.3282636   0.2270168   0.6718999   0.3376534
   0.1572695   0.1092028  -0.2945379   0.0660823   0.0716026   0.0678997
   0.4952658  -0.8622482   0.2432401   0.1226727   1.2169913  -0.6049169
   0.0722002   0.0660722  -0.0775417   1.8097602   0.3882416   0.9582888
   0.1164730   0.2382837   0.6053623   0.1203168  -0.0097756   0.1010428
   0.7772758  -0.1917800   0.3544149   0.6607976   1.0149684   0.6520086
   0.1274227   0.0012675  -0.1906671   0.0419260   0.1678953  -0.3555904
   0.2995076  -0.0955670  -0.2430572   0.1794339   0.0009043   0.0396941
   0.0679116   0.1422655   0.3785237   0.0677552   0.1168535   0.4878242
   0.0261230  -0.2633771  -0.1662680   0.4002656   0.3347131  -0.3512396
   0.3595018  -0.3377487  -0.7470569   0.2049710   0.1682970  -0.2532650
   0.4179168  -0.2550851   0.0664658   0.0183730   0.7493235  -0.3886797
  -0.1894287  -0.1190628  -0.0993502  -1.1313876  -0.3021560  -0.1302665
  -0.6246477  -1.4357304  -0.6773744   0.1175157  -0.1757438   0.3538946
  -0.0243143  -0.8408252  -0.6216855   0.1977707  -0.1539196  -0.2099924
   0.3513538  -0.0669558   0.2383733  -1.3255350   0.2643746   0.6117621
   0.2917164  -0.6685948   0.9820030   0.1177220  -0.2218865   0.3330065
   0.6811860  -1.2425393   0.5283384  -0.1542924  -0.0355147  -0.1392336
   0.2150840  -0.1570506  -0.2902723  -0.6612891  -0.3155193  -0.3521397
  -0.2977796  -0.7284819  -0.3047951   0.2343638   0.0258872  -0.3709204
   0.6405326   0.0949426  -0.5867690  -0.1551162   1.1713783   0.6711530
   0.3582051  -0.1652370  -0.0650500   0.3862292   0.2425271   0.5058877
   0.2091564  -0.0381164  -2.2095123   0.0552869  -0.0844009  -0.3924956
  -0.1322266   0.2648026   1.0825069   0.1372530  -0.2181733  -0.9649580
  -0.0150413  -0.1272632  -0.1589713   0.3738109  -0.1520238  -0.2678580
  -0.6939339   0.1874403   0.3327830   0.1918683   0.3067829  -0.2603220
   0.5862291   0.3452703  -0.5580693   0.1068133  -0.1485650  -0.1564943
   0.0165082   0.0763476   0.0267182   1.0776624  -0.0521678  -0.3204934
  -0.3660541   0.5264831  -0.5547356  -0.1721980   0.2794838  -0.1139617
   0.0517537   0.3765430  -0.4197632  -0.1587219   0.2518398   0.0312241
  -0.0138302  -0.0640434  -0.2480059  -0.0222546  -0.1294674   0.0050958
  -0.1893639   0.2661286  -0.2255696  -0.2533032   0.1784911   0.0471619
   0.7335593   0.9647451  -0.0284723   0.7075087   0.8134033  -0.0892734
   0.1362238  -0.2165423   0.1845740  -0.0636231   0.8229826  -0.4667119
   0.5105494  -0.6681394  -1.2925881  -0.2943782   0.1061217  -0.1672224
  -1.1375195  -0.7960071  -0.0604616  -0.3485815   0.5264235  -0.9289925
  -0.0156575   0.0708592  -0.2005578   0.1979389  -0.6032355  -1.2020146
   0.5876144  -0.1750984   0.2387081   0.0065776  -0.1818014  -0.0073065
  -0.2715630   0.6024145  -0.3624875   1.0793244  -1.3878606  -0.7522706
   0.1595695  -0.1348830   0.0508618   0.8985707  -0.3713659  -1.4366186
   0.2374778  -0.4904463   0.8669470   0.1153394  -0.1186936   0.0735863
  -0.6217893  -0.4352591  -0.0169035   0.2834184  -0.0057041   0.8560922
  -0.2448086  -0.5498800  -0.0632945   0.3622167   0.0197765  -0.2222623
   0.4496251   0.1951126  -0.0671835   0.1085786  -0.3289663   0.1732624
  -0.6328206  -0.6733276  -1.2595389  -0.6688947   0.5786517   1.1769465
  -0.0582184  -0.2495795  -0.2375743   0.1024554  -0.3351667   0.0974435
  -0.3482101  -0.4951693  -0.2753558  -0.1084955   0.1093057   0.1887691
  -1.1064576  -0.1673816   0.4665826  -0.4101931  -0.2180111  -0.0824895
  -0.0288688   0.2359836  -0.0240047  -0.6243035  -0.3107985  -0.6592710
  -0.2390497   0.1684532   1.2661005  -0.0004196  -0.0670611   0.2099684
  -0.3237244  -0.8863302  -0.7404640   0.6521335   0.8029158  -0.2540436
  -0.3208722   0.0374397  -0.0714281   0.1015130  -0.9543316   0.0826285
  -0.3477838  -0.6971451  -0.3504454  -0.1191948   0.0287730  -0.0263837
  -0.6153059   0.0724700   0.7165667   0.0573930  -0.1517575  -1.0653995
  -0.0767091  -0.1687703  -0.1406120  -0.0903362   0.0241949  -0.2440533
  -0.1683980  -0.1517375  -0.2062805   0.0321560   0.0098477   0.0206398
  -0.1618342   0.2255193  -0.2217340   0.1253861  -0.0616044   0.1407902
   0.0751075   0.0592216   0.1529045  -0.0137742   1.2544530  -0.8888313
  -0.2338602   1.0032969   0.2531021   0.1398677  -0.1975243   0.1061422
   0.0412426  -0.2028980  -0.0330569  -0.0289248  -0.1607301  -0.0967699
  -0.0846836   0.1089870   0.1931034   0.9767954  -0.7167524   0.3627882
  -0.3260465  -0.3761997  -0.0839649   0.2254250   0.1636256   0.1204577
  -0.4325715   0.0230357   0.0216844  -0.0096964   0.3282248   0.2782740
   0.2286154   0.0561768   0.0873301  -0.1751733   0.6418639  -0.3727974
   0.3281938  -0.2212758   0.2718313   0.2279990   0.1290470   0.2691993
   0.9288565  -0.1533917   0.6365807  -0.6365967   0.4860580  -0.4429179
  -0.0036229  -0.0600782   0.1169346  -0.3258871   0.2176034   0.3308992
   0.4711478   0.1170420   0.2699799  -0.3949702  -0.0227791   0.1402012
   0.3633415   0.4220372  -0.1479506  -1.0473837   0.6337203   0.1789129
  -0.0707155  -0.1248985  -0.2050006  -0.2326907  -0.0958888   0.2477284
  -0.7101661   0.0484893   0.4445871   0.1605718   0.2046757   0.0249263
  -1.1251624   0.5484039   1.0002114   0.5517511   0.2088607  -0.2753780
  -0.3673035   0.0539256   0.1669136  -0.5082844  -0.1810511   0.4410742
  -0.2625610   0.3274563  -0.1561545   0.1215969  -0.0527671  -0.1427707
   0.3448334   0.4769456   0.5666963  -0.2598862  -0.4384801   0.2573695
  -0.1053545  -0.3210811   0.1120764  -0.9415832  -0.3437061  -1.0546120
   0.4065940  -0.4169006   0.7566472  -0.1770888  -0.1038722   0.1807116
  -0.1725956  -0.1863715   0.3762396   0.6008149  -0.0556817   0.0630118
  -0.0065993  -0.1517487  -0.0446260  -0.2147624  -0.1599823  -0.4425501
   0.6004416  -0.1554863   0.7981960   0.2282659   0.0080197  -0.1885721
  -0.5193208   1.0440030   1.1959436  -0.0123093   0.8849134   0.1970418
  -0.0603926  -0.0851813   0.0932032   0.2559911   0.4781995   0.6538631
  -0.0627124  -0.5665298  -1.4734468   0.4535968   0.2451125  -0.0609361
  -0.1192967  -0.6122310  -0.1264945   0.1417100  -0.2389744  -0.1158416
   0.2560422  -0.0004869   0.1693899  -0.2862019   0.5721490   0.1358234
   0.6171312   0.1229994   0.5541680  -0.2244429  -0.1663467  -0.0408731
  -0.5658200   0.0349305  -0.2367307   1.4494632  -0.1636385   0.5401928
  -0.1560737  -0.0010677   0.0344600  -1.1654020   1.1919528   1.1440737
  -0.2930990  -0.3683839   0.4262828   0.1350990   0.1405762   0.2289670
  -0.1245920  -0.5998134   0.1597773  -0.6712162   0.4895369   0.3881029
   0.1851906   0.2928770   0.2453645  -0.3829497   0.6825121   0.2914302
   0.1653153   0.0338960  -0.2374312  -0.0008141   0.2072528  -0.0115853
  -0.3275988   0.9177774  -0.4719527  -0.4229015   0.8156226  -0.4554772
  -0.0906286  -0.0260928  -0.0182285  -0.0646600  -0.6076827  -1.5030658
   1.1439547  -0.8622617  -0.2440825  -0.0899862   0.1312228  -0.1709803
  -0.3237867   0.2141748  -0.8086502   0.2469998   0.0561727   0.9026340
   0.1051497  -0.0545206   0.0418097   0.3742531  -0.4246228  -0.0110962
   0.8924759   0.8975261   0.0154716  -0.4770970   0.1414549   0.1444463
  -0.4692416   0.1848274  -0.3900007  -0.5486010  -0.3881059   0.0568612
  -0.0986967   0.0879636   0.1294044  -0.0045740  -0.1996479  -0.3357853
  -0.6793263  -0.2342200  -0.1765462  -0.1469420   0.1817929   0.2273276
  -0.1467563  -0.0862622   0.7243293  -0.3489947  -0.3715072   1.0896171
  -0.0677396  -0.1214999  -0.0543561   0.3412928   0.4310947  -0.2070522
  -0.0420678  -0.4352348  -0.3462178   0.1689113   0.1334882   0.0787994
   0.1004986   0.1463773  -0.2296181   0.0174209   0.1118607  -0.3370793
   0.0946947   0.0126786   0.1117506   0.6421611   0.4577701  -0.4064513
   0.7010716   0.4912017  -0.4509012  -0.0310899   0.0328725  -0.1269114
  -0.3820938  -0.0217405   0.6853987  -0.1589740  -0.2971091   0.1670575
  -0.0602175   0.2359614  -0.2911761  -0.2398863   0.2913056   0.0317921
   0.1249883   0.3308782  -0.9713187  -0.0610211   0.3073567  -0.1505901
  -0.7974614  -0.1305933  -0.2550095  -0.4371460  -0.4451742   0.7575547
  -0.0627369  -0.0009704  -0.1489799  -0.5854806   0.1826668   0.8050286
  -0.4574260   0.1266006   0.5906162  -0.1170327  -0.0225683   0.3031493
   0.2856570   0.4421968   0.5056390  -0.6832577  -0.6451771  -0.0608055
   0.2717525  -0.3933424   0.0187198  -0.9645499  -0.7996501  -0.8993357
   0.2180043   1.3151498  -0.2756354   0.1505055   0.1387071  -0.0888761
  -0.0841229  -0.4730759  -0.6639051   0.6402375   0.7073239  -0.8610696
   0.1989638  -0.2930429   0.3846262  -0.1654066  -0.5228501   0.4071399
  -0.7458465  -0.7930937   0.5778840   0.1076463  -0.2004787   0.2581959
   0.6558044  -0.5667079  -0.3148963   0.5278630  -0.1424908   0.6898781
  -0.2213843   0.0295480  -0.2782787   1.2357846   0.5658723   0.7047816
   0.8173743   0.1667229   0.3757405  -0.1409223  -0.0711642   0.0630894
   0.1275043  -0.0222152   0.4023567   0.5212095   0.1056096   0.0955565
  -0.0969582   0.0802210   0.0538055  -0.5003994   0.3151305  -0.6085181
  -0.6084736   1.4341689  -0.0666702   0.0343070  -0.0627505  -0.0803497
  -0.2164029  -0.8016685  -0.1984452   0.1611969  -0.8266131  -0.9678836
  -0.1210754   0.0605402  -0.2571595  -0.8243953   0.3958028  -0.2760463
   0.4497162   0.3862192  -0.2444466  -0.0456578  -0.1027149   0.1060108
  -0.6604806  -0.9451374  -0.4293738   0.7019174  -0.3322517   0.5369046
   0.1118751  -0.0633206  -0.0923213   0.4272248  -0.3377686  -0.2970642
   0.0593529   0.2571458  -0.1562886   0.2314090   0.0133254  -0.0431061
   0.2070923  -0.0413740  -0.4452937   1.5165949   0.2433310   0.1131277
   0.1178253   0.2943646   0.0349767   0.5859554   0.0525557   0.5826641
  -0.0060581  -0.3375490   0.1321076   0.0580403   0.2692583   0.2639049
   0.5710772   0.7314688  -0.3015802  -0.2766652   0.8055943   0.1079033
  -0.0082556   0.2529067  -0.3379865  -0.1709275   1.2674579  -0.4870268
   0.8072619  -0.2409072  -1.1119851  -0.3037552  -0.1778478  -0.1138445
   1.3504287   0.4427355  -0.8029294  -0.4042925   0.2555394   0.5365724
   0.5410720  -0.0108913  -0.1957875   1.4967197   0.4239742  -0.0078543
  -0.7563555   1.0818818   0.9856236  -0.1186274   0.0171055   0.2529662
   0.1890085  -0.4618284  -0.2396928   0.0954656   0.3453126  -0.1883304
  -0.0769720   0.0370726   0.3047613  -0.2686522  -0.6785507  -1.0667937
  -0.6888096   0.7604930  -0.2556937   0.0808474  -0.0532937   0.0806654
   0.2927185  -0.3652113   0.4132294  -0.0350635   0.3129813   0.3351351
  -0.2109810  -0.1821211   0.2798492   0.3064050  -0.8453635   1.3230953
   0.4667242   0.4087572  -0.0853100   0.2846681   0.2082280  -0.0238707
  -1.3703645   0.3173422  -0.1845031  -0.1167347   0.4607696  -0.1128162
  -0.0211332  -0.0380742  -0.0712817  -0.5743394  -0.0693513  -0.6814537
   0.3208108  -0.6980521  -0.2757346   0.2942928  -0.1061325  -0.0403179
   1.2254436  -0.7920365  -0.9395509   0.0103221   0.6257107  -0.6061557
   0.1272447  -0.0197701  -0.0908120   0.2815406  -0.6673947  -0.1093611
  -0.1369022  -0.2168376   0.5828938   0.2826730   0.3614886   0.0429374
   0.0188413  -0.1922716   0.4358544   0.2927798   0.6094094   0.3521708
   0.0658626   0.2596104  -0.1220080  -0.1541757   0.8036675   0.4106728
   0.3884105   0.3551375  -0.2634916  -0.0382519   0.2272599   0.1261056
   0.5790035   0.9730511  -0.5770611   0.0359404   0.4241766   0.1025373
   0.1191554   0.0865061   0.1445540   1.3401177   0.0249941   0.4062661
   1.0758713   0.9714934  -0.5009878   0.2316201  -0.2388065  -0.2664526
   0.3337930  -0.1588172  -0.0216476   0.4203392  -0.1751495   0.1085779
  -0.2318559   0.1397538  -0.2057139  -0.0858677   0.7103385   0.4640658
   0.0773952   0.4054804  -0.1950948  -0.2724016   0.2129232   0.0725528
  -0.7911312   0.0554706  -0.2659390  -0.0440647   0.0757377   0.4952048
   0.0684570  -0.1131939  -0.0116768  -0.0317726   0.0431041  -0.5366446
   0.2275927  -0.2755288  -0.4365575  -0.1442415  -0.1548542  -0.1157074
  -0.1015890  -0.3380879  -0.1690826   1.0041041   0.5416185  -0.0955621
  -0.0057589  -0.1297272  -0.1230601   0.8714930   1.5334317  -0.0486831
   1.1535984  -0.2755551   0.0068719   0.1003046   0.2700376  -0.2658174
   0.1289124   0.2970637  -0.2270200  -0.0464537   0.3459712  -0.1715264
  -0.2519658   0.1339479   0.3349976  -0.2745155  -0.1366518  -0.1567242
   0.8197899   0.2915614   0.5293750   0.0224838  -0.3316924  -0.4215664
  -0.1930439  -0.0833250  -0.6680518   0.4168882  -0.1718134  -0.2355000
  -0.1395669  -0.2897852  -0.1402626  -0.1371956   0.4705233   0.2828089
   0.4726215  -0.4010583  -0.2985894  -0.3133461   0.1776617  -0.1008236
   0.8891711   0.6300962  -1.0520572   0.3615276  -0.0108761   1.0976557
  -0.2253650   0.0733776  -0.0703000  -0.9716038   0.2805657  -1.1775305
  -0.4637262  -0.0613243  -0.1040156   0.3571599  -0.0384832  -0.3639846
  -0.6186496  -0.0647646  -0.9538301   0.3886377  -0.5503141  -0.5103566
  -0.0655115  -0.2150309   0.0318820  -0.3149262  -1.0528812  -0.1798125
  -0.2010479   0.5509926  -0.3302010  -0.0064808  -0.2520275   0.5090028
  -0.0754518   0.3320473   0.2641669   0.6554757  -0.5894896   0.7732216
  -0.0162536   0.0964964  -0.1417270  -0.5951432   1.6164858   1.1182174
  -1.5028069  -0.8900518  -0.8485827  -0.1902078  -0.1788133   0.0312037
  -0.2358627  -0.6177205  -0.3279162  -0.7527905   0.6279677   0.1600538
  -0.4894330  -0.1870204  -0.2183669   0.4013878  -0.6373211   0.6312987
   0.8721533  -0.6422338   0.1047557  -0.0792569  -0.1835702   0.0947419
   0.4667827   0.8778712  -0.3732085  -1.2790983   1.8652007  -0.5422939
  -0.1037739  -0.2950811   0.1773204   0.0614455   0.3254179   0.3081527
   1.0120767  -0.2281389  -0.3272173  -0.0064735   0.1118728  -0.0478248
  -0.5843184   0.1455155  -0.6570187   0.3480649   0.5165302   0.3191754
  -0.2509273   0.0899282   0.0591676  -0.0840626   0.0081915   0.1746912
  -0.4066487   0.4039311  -0.4549422  -0.1480994  -0.4302098  -0.0135164
   0.1641787  -0.5244643   0.8092067  -0.1819549  -0.3693457  -0.3197735
  -0.0502648   0.0614791  -0.2795984  -0.1874845  -1.0368536   0.7310729
   0.5066600  -0.4316519  -1.0806963  -0.0873035  -0.0563716   0.0148064
   0.4781657  -0.8426050  -0.3503300   0.2284852   0.1197616   0.3446677
  -0.0493159  -0.0778854   0.1301680   0.3586588  -0.3486739  -0.4929357
  -0.2586144  -0.1037104   0.4613581   0.3495917  -0.0410890   0.0788666
   0.5270322  -0.7243665   0.2235798  -0.1646421  -0.2504573  -0.1726616
  -0.0621091  -0.0231905  -0.2302158   0.1532696   0.4460426  -0.4763567
   0.7524832   0.0938880   0.4356328   0.1102169  -0.1088659   0.2753718
  -0.1877979  -0.3948103   0.7866927   0.0636614  -0.4508049  -0.2650847
  -0.1348828   0.0940097   0.1830544  -0.8181498  -0.3770236   0.3277182
   0.2232784   0.0117572  -0.1610380  -0.0827919  -0.3002789  -0.1426342
  -0.2917807   0.6055074  -0.0713538  -0.4444540  -0.1061498  -0.1098720
   0.2786776  -0.1050136   0.0655717   0.7841553  -0.2715191  -0.2693592
  -0.0984742  -0.3362902   0.0358060   0.1197361  -0.1372891   0.0866109
  -0.2102322  -0.5328103  -0.2860187   0.3297095   0.6453646   0.9273248
   0.0834180   0.1031330  -0.2238382   0.3556320  -0.5037170  -0.2276422
  -0.0476583  -0.1772315   0.1047061   0.1611002  -0.1267079  -0.0934318
   0.0701319  -0.2262859  -0.5259470   0.0792722  -0.1799912  -0.5956318
  -0.3943585  -0.0386944   0.1355155  -0.1767137  -0.8530018   0.4082136
  -0.2772136  -0.6748312   0.3400708  -0.0320217  -0.1559421  -0.2078733
  -0.2939262   0.0259765  -0.0130851  -0.4067801  -0.1230891  -0.1954044
   0.0796229   0.1392679   0.0845308  -0.0887785   0.1254469   0.7187332
   0.4268157  -0.5764733  -0.0697771  -0.0217453  -0.0576728   0.0596264
   0.7061160  -0.2463124   0.4068756  -0.1331411   0.1832406   0.1973526
  -0.0266958   0.0086254   0.2941245   0.2552501   0.4982316   0.2961264
   0.3163619  -0.1028126   0.7451990  -0.0810231  -0.0522745  -0.0372351
  -0.1757687   0.4568969   0.3381150   0.1750685  -0.4561543  -0.2833408
  -0.2323833  -0.2205783  -0.0834163  -0.3571229  -0.5896210   0.5401676
   0.0694295  -0.2241225   0.6756824  -0.0147790   0.2506179  -0.1878027
   0.0303581   1.5087576  -0.9862367  -0.2401643  -0.5005420   1.7858467
   0.2588186  -0.1049212   0.4647199   0.2574827  -0.6037762  -0.0374635
  -0.5410316   1.1488162   0.0060589   0.0018263  -0.0053231   0.0294679
   0.4370761  -0.4307939  -0.8784632  -0.6240175   1.6745958   1.5140100
  -0.3306894   0.0791933  -0.0256383  -0.2875871  -0.8971284   0.4208563
  -0.3163651  -0.1922750  -0.6721493   0.2631450   0.1359831   0.2453621
   1.1027270   1.6753881   0.4194923  -0.4954108  -0.7660529   0.6453223
  -0.1089078   0.0058556  -0.0156220  -0.1045747   0.1895140  -0.0657968
   0.2071685  -0.4463101  -0.1773168   0.2727926  -0.3252762  -0.1106158
   0.2039976  -0.2094613  -0.2621873   0.4778697  -0.4801170  -0.1329857
   0.1782935  -0.0905467  -0.1370210  -0.0782573   0.0590875  -0.4774500
   0.4157578   0.2593717  -0.3704607   0.1022708  -0.0263968  -0.0634604
   0.7707133   0.2197309   0.7127836  -0.3549815  -0.3499451  -0.8494819
   0.2628369  -0.3738596   0.1335164  -0.7623303  -0.1481933   0.0671873
   0.3186446  -1.2969175   0.5113853  -0.0846970  -0.0976595  -0.1736804
  -0.8466908   0.0153983  -0.0193400   0.0337184  -0.7684701   0.1629437
   0.1219557  -0.3165129   0.1572896  -0.5142532  -0.4331516   0.3143736
   0.4113121   0.1549122   0.4591239   0.1320756  -0.0539801   0.1258024
  -0.2705115  -0.1344749  -0.5131883   0.3882670   0.0083021   0.5921310
   0.0846707   0.0381871  -0.2809654   0.1404654  -0.4848151   0.6800931
  -0.5990528  -0.6682273  -0.8538550   0.0916203  -0.2308394  -0.2660246
  -0.1693686   0.3269935  -0.8392178  -0.1993100   0.1108352   0.3746296
  -0.2125781   0.1734771   0.0476409   0.0123938   0.3728068   0.1631953
  -0.0138812   0.2704965   0.1845107   0.1561042   0.2832088  -0.1263319
   1.5508625   0.3357128   0.4109916  -0.9161537   0.5087790   1.0142132
  -0.0683892   0.0975046   0.2913260   0.4902157   0.7354162   0.7850688
  -0.9888264  -0.0510735   0.2377836  -0.3776079   0.1238110   0.0570588
   0.5305640   0.4265003   0.0605301  -0.8548273  -0.4099756   0.6146717
  -0.0028971  -0.2150773   0.1680509   0.1821798  -0.1364213   0.1630568
  -0.0989444  -0.1736352  -0.5097230  -0.0508921  -0.1021529   0.0552228
   0.3804973  -0.5747566  -0.5864074  -0.4649425   0.9456589  -0.0818426
  -0.0804185   0.1544125   0.1043967   0.1473741   1.3568986  -0.3820676
  -0.3908623   0.3678821   1.0196303  -0.4372401  -0.0882424   0.0278359
   0.2740217  -0.1618315   0.3841790  -0.6613056   0.3493087   0.3191176
  -0.1471916   0.5297417  -0.1460876  -0.0125962   0.7886052  -0.7091161
   0.7112768   0.5467687   0.2841847  -0.1629931  -0.1365114  -0.0141556
   0.6193491   0.1610277  -0.7310835   1.3592111  -0.0537570  -0.0506560
  -0.0937998   0.1216028  -0.0272152  -0.4174711  -1.2522329   0.0308311
   0.1269179  -0.9466185   0.4982734   0.2037240   0.2010726   0.0238504
   0.8366785  -0.6834311   0.5334417  -0.7782764   0.0083281  -0.1342442
   0.0091745  -0.0768118   0.1198582   0.1762869  -0.0981545  -0.0309811
   0.2455813  -0.0847709  -0.1748709   0.0101564  -0.1464528  -0.0251480
  -0.8340552   0.9875000  -0.8541280  -0.1428425   0.4287717   1.5902904
  -0.0298755   0.1435694   0.4881386   0.7834539  -0.0950334   0.0414886
   0.2390727   0.7818780  -0.2239990   0.0646093  -0.0776396   0.2328537
  -0.1824141  -0.1948642  -0.0687535   0.3473003   0.0218480   0.5182137
   0.2116961  -0.1365296  -0.2070961   0.2133763  -0.5029104   0.1145134
   0.3839506  -0.3114454   0.0021692   0.1278682   0.2283469   0.1082888
   0.2597398  -0.7315121  -0.2840023   0.3946543   0.2959963   0.1398901
  -0.1185874   0.0608945  -0.1260695  -0.1087806  -0.3574995  -0.0098500
   0.3097728  -0.3433111   0.6883526   0.2109995   0.0044768  -0.1347268
   0.2285486   0.4211712   0.4364903   0.6297248   1.0156593  -0.0183548
  -0.2456807  -0.1236128   0.1663434  -0.3312448  -0.3370642   0.1295532
  -0.2629861  -0.1797689   0.0926221   0.0889988   0.2231373  -0.0082885
   0.2008785  -0.7000693   0.5925658   0.2192459   1.9102303   0.3676168
   0.1981422   0.2150535  -0.0283437  -0.3390946  -0.5408028   0.3336611
   0.8430439   0.7010897   0.5788828  -0.0296533  -0.3085171  -0.1337556
  -0.2125576   0.7410118  -0.0263353  -0.4561698   0.3055156   0.4726857
  -0.0376983   0.1261444   0.1135610  -0.8098775   1.1898310   0.6298058
  -1.1252770  -0.4451788  -1.0302566  -0.0946286   0.0259828  -0.1414179
  -0.3993473  -0.2043339   0.2870253  -0.1198088  -0.5399477   0.3162663
   0.1930937  -0.0597452  -0.1073745   0.5667074  -0.1453920   0.4119019
  -0.0638352   1.2533260  -1.3236652   0.1501033   0.0426415  -0.0081718
  -0.2227727  -0.3591256  -0.3179691   0.6453088   0.1333732   0.0287157
   0.0099310   0.0174277  -0.1451181  -0.2484997   0.8843893  -0.4172890
   0.5251853  -0.9476393  -0.4494461  -0.1730555   0.1227734  -0.2415308
  -0.5044188  -0.2748488  -0.5990334   0.1471527   0.5347321   0.1080732
  -0.1467693   0.1002881  -0.2330540   0.6929465   0.8527688  -1.8390043
  -0.0174518   0.2904957  -0.0945998   0.0852445   0.0726403   0.0814841
  -0.1097895   0.4669679  -0.2862978  -0.1621052  -0.1488095   0.6016913
  -0.0214926  -0.2510724  -0.0655097  -0.0086802   0.1044607   0.4555114
   0.6137431  -1.1359547  -0.4528483  -0.0208295   0.1556750   0.1755714
  -0.0311855   0.1186023   0.2072340  -0.2243791   0.4750478  -0.4368611
  -0.0455351   0.0190675  -0.0863239   0.2720859  -0.0585933   0.4090641
  -1.0240131  -0.1140705  -0.1699628  -0.1550775   0.0870117  -0.2896222
  -0.1195154   0.3000819  -0.8187253  -0.1605713   0.0324045  -0.1351801
  -0.0555979  -0.2368047  -0.0334317   0.0317013   0.1722304  -0.3553699
  -0.9196901  -0.9899581   0.4426091  -0.2794817  -0.0728053   0.1755507
   0.2796363   0.5954740  -0.0279835  -0.5025044   0.0098992   0.6264194
  -0.3056082   0.1797616   0.2603476  -0.3915459  -0.2747710   0.9068184
  -0.5363933   0.9033959   0.5132305   0.2568805   0.1202165  -0.2368824
  -0.6668492   0.5160477   0.0511444   0.5565697   0.3133000   0.4835718
   0.1889953  -0.0214883  -0.0525881  -0.5794533  -0.0046716   0.3606243
   0.1732844  -1.2055128   0.7329375  -0.3219517  -0.0118002  -0.2622912
  -0.2362311   0.1937223  -1.3375482   0.5570507   0.0280983  -0.2629732
   0.1290373  -0.3978355  -0.0127889  -0.2210707  -0.6049251   0.5675462
  -0.1626909  -0.2788543   0.4164749   0.1089519   0.3029173  -0.0820158
   0.6546805   1.0584640  -0.2187988   1.5951895   1.2816925  -0.3116314
  -0.3843282   0.2004954  -0.2688757  -0.1984681   0.3442462  -0.5339464
  -0.7590368  -0.0084076   0.1540720   0.1984287   0.0721216   0.1446008
  -0.2394643  -0.1967426  -1.0082837   0.4937607   0.1056026   0.6470508
  -0.0701863   0.3730844  -0.0761326   0.1043909   0.2399345  -0.1265089
   1.2055025   1.4522529  -0.0483603  -0.1066243   0.0803247  -0.2997588
   1.0786074   0.0546619  -0.4748961  -1.3999001   0.4493329   0.4791883
   0.0795488  -0.1061059  -0.1086917  -0.9494868  -0.2687684  -1.3103421
   0.3986806   0.3620161   0.4556466   0.0191172   0.1471880  -0.0233444
   0.1669904  -0.2273995   0.1048053   0.9025974   0.7542638  -0.6071979
  -0.2416758  -0.0819857   0.0192283   0.3611301  -0.3044026  -0.9112138
   0.0029166  -0.1885442  -0.4142935  -0.0767768  -0.1436016  -0.3015164
   0.0651396  -0.1892596  -0.4312210  -1.0332192  -0.3917348   0.0010757
  -0.0158816  -0.0755209   0.1222260  -0.0910163  -0.0925500   0.4474452
   0.0258994  -0.7367755   0.6161132  -0.4044945   0.1146577  -0.0334121
   0.0634746   0.2973702  -0.2067186   0.7489372  -0.9261901  -0.4321389
   0.1112340  -0.0608614   0.2825992   0.0934917   0.0344314  -0.2059829
   0.3375985  -0.3347614  -0.3574896   0.0421592   0.2368538   0.1131456
   1.1307120  -0.5344492   0.4817572  -0.4729295   0.3988187  -0.8081987
  -0.2088318   0.0142591  -0.1159893  -0.1239144  -0.0554577  -0.1386716
   0.1979569  -0.2867174   0.1166736   0.2039879  -0.3220453   0.2026620
   0.2310346   0.2251172   0.7651471   0.1404593  -0.3585155   0.3081908
  -0.1368840   0.0528562   0.2541693   0.5279143   0.2794716   0.7055732
  -0.2801340   0.0986416  -0.2835630  -0.1134830   0.0459670   0.2982144
  -0.0346444  -1.1913703   0.1898175   0.2176068  -0.3254149   0.7194360
   0.2424154   0.0941143   0.0480189   0.5930190  -0.2610506  -0.5533869
   0.8202638  -0.4466526  -0.4654447  -0.1759472   0.1663710  -0.0310937
  -0.3631153  -0.2439630  -0.2320215  -0.0192546   0.5570085   0.1746076
  -0.1150698  -0.0669361  -0.3175470   0.6201303   1.0083533   0.2116156
   1.0253439  -0.0901826   0.2739360   0.1494925   0.1789793  -0.0796301
  -1.7840711  -1.0334811   1.2673518   0.2472218  -0.9329652  -0.2508585
  -0.0123625  -0.1165880  -0.2479021  -0.0084549  -0.0460588   0.3377901
   0.6439711   0.3690511  -0.5285548  -0.0462808  -0.1381835   0.0601495
   0.0485782  -0.0172763   0.0541665  -0.4198238  -1.0877698   0.3111276
   0.1090278  -0.0374843  -0.1611049   0.0938362  -0.0442866  -0.3084583
  -0.2315302  -0.1976131  -0.2871487  -0.1239035  -0.1314667  -0.0035857
   0.0096220  -0.5468125  -0.1262913  -0.2919797  -0.0691812  -0.2219113
   0.2392220   0.0989463  -0.1128223  -0.0834547   0.9423681  -0.4388219
   0.6691193  -0.1445239  -0.6688934  -0.2789355   0.0998193  -0.2522267
  -0.5884922  -0.9822354  -0.5598682   0.5060148  -0.0962964   0.3848610
   0.0473063  -0.0106692   0.1376010   0.1689008  -0.2432014   0.4503177
  -0.8404635  -0.2229952   0.2352411   0.2720320  -0.0496994   0.1094788
   0.4322951  -0.9339809  -0.1031105   0.7164853   0.3038446   1.2761031
   0.3784289  -0.0774080  -0.0051545   0.3806868   0.9429261  -0.6494619
   0.1944479  -1.0176543   0.5007578   0.1215191   0.0219594  -0.1153365
   0.3722940   0.1738524  -0.0692868   0.0694875  -0.1207417   0.1407863
  -0.0813499   0.2186942   0.1862280  -0.8830618   0.9944283  -0.6072212
  -0.1038551   0.4729641   1.2903268   0.1663688  -0.2799630  -0.0556277
   0.2516467   0.4427067   0.5150881   0.0392840   0.1280539  -0.8981912
   0.2641034  -0.2921506  -0.2897511   0.3741812   0.2875660   0.2096616
  -0.1597463   0.5759981   0.5499658  -0.0197187   0.1884009   0.3333014
   0.2922394   0.1112564  -0.2093231  -0.1237626   0.6429925   1.2433315
  -0.0215663   0.0227001  -0.3882500  -0.4601307  -0.9737512  -0.3560934
  -0.6783476  -0.9361892  -0.6435563  -0.1439702  -0.1084944  -0.0333572
  -0.0870466   0.4421716   0.6054509  -0.0970929  -0.1343548   0.0881318
  -0.0220464   0.0196696  -0.0225281   0.1345140  -0.2356516  -0.3595407
   0.2594008  -0.2144853   0.0816131  -0.1308702  -0.2559493  -0.1219934
  -0.2794007  -0.2437850   0.6314124  -0.4339799   0.0647367  -2.3083497
   0.0697937  -0.0422253  -0.0645911   1.2087565  -0.2612702  -0.6997563
  -1.0352031   0.4475210   0.4413353   0.0888512  -0.0649231  -0.0323409
  -0.1999359  -0.3285609  -0.2755047   0.7469740   0.2905950   0.0928510
  -0.0380099   0.1332422  -0.0762590   0.2477063  -0.4658728  -0.3508751
   0.0942944  -0.1921365  -0.2363183   0.2317362  -0.1041198  -0.2843986
   0.4355889  -1.2888716   0.9118661   0.1783286   0.6485921  -0.1705009
   0.3633583   0.0415141  -0.3302229  -0.1970772   0.1865245  -0.2719320
   0.1339340   0.1338811  -1.2418849  -0.3274986   0.3440519  -0.0964219
   0.1185066   0.1065383  -0.0602405   0.3661061  -0.1950382   0.1611685
   0.1336216  -0.2608616   0.0454529  -0.2052569  -0.8389756  -0.8176830
  -0.4909865   0.5826342   0.1139686  -0.0403926  -0.1167491  -0.1035699
  -1.0723409   0.2819711   0.3651358   0.6207022  -0.4139796   0.0867531
   0.1696305   0.0266744   0.3015540  -0.1413064   0.3203160   0.3361089
  -0.2236562   0.5547369   0.2134671   0.2001540   0.2704651   0.0470990
   0.8522731   0.0271350  -0.2589036  -0.1298337   0.8452333  -0.4329336
   0.0629322  -0.1108554   0.3484743   0.4789211  -0.2874939   0.2741385
  -0.1302415   0.1561736   0.4768768   0.0028353   0.1273842  -0.0528012
  -0.5711267   0.7552766  -0.3394791  -0.0163624  -0.0360842   0.0670001
  -0.1179495  -0.0993353   0.0562575   0.0090066   0.1983262   0.4776550
  -0.2343271   0.3164645   0.3594291   0.0160775  -0.0266199  -0.1262614
  -0.2147666  -0.5036000  -0.1278564  -0.4821210  -0.4587234  -0.6192758
   0.0642046  -0.2401176  -0.1511081  -0.0398154   0.0680248   0.6844366
  -0.2240803   0.4912842   2.3013271  -0.1751466   0.0727324   0.1591364
   1.3804189   0.5708992  -0.0590956   0.3707126  -1.6303182   0.6055937
  -0.0841498  -0.0505297   0.1793901  -0.1131797  -0.2648533   0.8467251
   0.2627956   0.9945893   0.6620152   0.0547935  -0.1938115   0.0078051
   0.5034310  -0.1507137  -0.0203384  -0.0270191   0.6007229   0.4150489
   0.1825809   0.0464385   0.1680395  -0.4158076  -0.4211715   0.3134863
  -0.6683412   0.2273966  -0.1186721   0.4991463   0.0942224   0.0030772
  -0.5463236   0.4215111   0.0273455   0.8871575  -0.4872419   0.8896204
  -0.1950697   0.1759379  -0.2665869  -0.6141628   0.0110308   0.5189984
  -0.9060897   0.1500244  -0.5239897  -0.1669258   0.1626213   0.0038586
  -0.2899703  -0.2399154  -0.5498132   0.0001600   0.5061434  -0.2164326
   0.2889387   0.1405206   0.2454168   0.4933021   1.0146795   0.5657620
  -0.6275023  -0.2174312  -0.9719055   0.1983313   0.2138624   0.0077419
   0.1504958  -0.8710042  -0.1322458   0.6593319  -0.4629019  -0.2839344
  -0.1369646   0.1188668   0.1854052  -1.4781059   0.4759002   0.5430817
  -0.0194235   0.1110463   0.0955839  -0.0981196   0.3167738   0.1200184
   1.0324358   0.0878880   0.1909222   0.1447791  -0.3292562   1.3222221
  -0.0999419  -0.1968111   0.3707464   0.8573295   0.1083606   0.5217044
  -0.0837584   0.2870126   0.2002038   0.2945038   0.2704162  -0.0177986
   0.0978352   0.2362168   0.7233378  -0.1879846   0.7679745  -0.4319374
   0.0222329  -0.1060584  -0.0940979  -0.4889650   0.2391679   0.3547131
  -0.4887962   0.6967009   0.0926306   0.1765535   0.1405440   0.1400151
  -0.4749488   0.3463075  -0.5728338   0.1965324  -0.4450068   0.3948307
  -0.2007708   0.0359094  -0.2134990   0.0180945  -0.2381613  -0.4912686
  -0.2165965  -0.0048431  -0.1861318   0.2128045   0.0668827   0.4233585
  -0.1199705  -0.5427475   0.2723285   0.6148696   0.4653811   0.6632362
  -0.1626053   0.0905581   0.2293174  -0.2428822  -0.5587588   0.9439778
  -0.4398925   0.4384732  -0.0698947  -0.2810655  -0.0089849   0.0399097
   0.7468425   0.2395274   0.5875257  -0.1920355   0.2918926  -0.0015143
  -0.0693828  -0.1059289   0.0424101   0.0608582   0.1243822  -0.2510911
  -0.0614473  -0.0612594   0.1120188   0.2851358   0.2799185   0.2710342
   0.9340092  -0.0495330   0.4263772  -0.4519426   0.1325529   0.1424662
   0.1643920  -0.0672508   0.0585957   0.7629286  -0.3648834  -0.0595433
  -0.2860979   0.2673849   0.1966931  -0.1570573   0.1061998   0.1915725
   0.0789589  -0.1210828   0.1200875   0.5551615  -0.2812406  -0.0026431
   0.1401886  -0.0689718   0.2414161   0.1260940  -0.0554544   0.7055040
   0.1086657  -0.5372153   0.1331291   0.0994995  -0.0849793  -0.1062653
  -0.4316379  -0.0943007   0.1370279   0.3715611  -0.6546516   0.0443621
  -0.1029842   0.0515315   0.0836798   0.6416721  -0.5651499   0.2477666
  -0.8756497  -0.5378499  -0.0388217  -0.2729489   0.0897111  -0.2679745
   0.3424804   0.3288431  -0.1584251  -1.3159264  -0.3414171  -0.3449254
  -0.1705915   0.2850895  -0.0052101  -0.0042303   0.2769852  -0.3407143
  -0.3575513   0.2142533  -0.0520384   0.0317974  -0.0289727  -0.1122422
  -0.0874762  -0.7660212   0.1947062  -0.3714388  -0.0327868   0.3881054
   0.0989624  -0.1832254  -0.1987107   0.3437668  -0.4264684   0.5071771
   0.0079352   0.3879130  -0.5203827  -0.0226395   0.2694108  -0.6606313
   0.2057793   0.9543354   1.0257719   0.4226965  -0.1774861  -1.4869374
  -0.1578047   0.2353469   0.0425699  -0.3462049  -0.1581422   0.8591610
  -1.4938706  -0.1493988   1.1330409  -0.0305461   0.2929352   0.1362171
  -0.3692228  -0.1553729   0.1893414  -0.2261787   0.7234845   0.2893269
   0.0871680  -0.2632371  -0.0886684  -0.2937768  -0.0229823   0.6530247
  -0.8022566  -0.5879455  -0.4270888  -0.1577343  -0.0977485   0.0146067
  -0.1845024  -0.2760989   0.1246772  -0.1438648   0.0529955   0.0125041
   0.0620678  -0.1555199   0.2553827  -0.4336464   0.4846546  -0.1366502
   0.5039666  -0.3804284   0.8030112  -0.0405283   0.1066555   0.0539920
  -0.4962311  -0.2018772   0.4760839  -0.6438389   0.4808025  -0.7476335
   0.2958888   0.0691262   0.2696561   0.9630636   0.1455414   0.4400062
   0.5774508   0.0708720   0.2340187   0.0069704  -0.0052929   0.1908607
   0.3641235  -0.2585209  -0.1204181  -0.1317128  -0.1972202   0.3243869
   0.0660131   0.3562888   0.1135373  -0.4935600  -0.3393991   0.9207564
   0.4549155   0.7458232   0.7015124   0.1454299  -0.4036919   0.1862218
  -0.3691545   0.0051676   0.4765455   0.1686935  -0.3129858  -0.2838260
   0.0344902   0.2173478  -0.1170012  -0.5521413   0.3922017  -0.2926610
   0.9229121   0.2053501   0.0854985   0.0612061  -0.2485022  -0.0816770
  -0.1969649   1.1659358  -0.0832050   0.1852054  -0.9137445  -0.1044347
  -0.0033841   0.1342385  -0.3194417   0.3924495  -0.3297076  -0.0124786
   1.0675217  -0.4254552  -0.1239053  -0.0883693   0.0388183   0.0927869
  -0.6311791  -0.4092864   0.1064483  -0.1204330  -0.0604554   0.8217470
  -0.0083547   0.0370241   0.1652077  -0.9125773  -0.8903442  -0.2935839
  -0.4235325  -0.5736466   0.0245127   0.2627048  -0.1675097  -0.1438456
   1.0527733  -0.2954889  -0.2456705   0.3757465  -0.5816887   0.0432584
   0.1302628   0.0940684   0.0372485  -1.3652522  -0.3926042  -0.0523630
  -0.1431634  -0.0350082   0.0006300  -0.1234189  -0.0430540   0.2570288
  -0.3501697   0.3191508   0.0947758  -0.1046138  -0.0506285   0.1435754
   0.1687781  -0.1843386  -0.3249871  -0.3813320   0.7281519   1.2120609
  -0.6773594   0.1776804   0.7988344  -0.0910740   0.0283748  -0.0513712
   1.4860988   0.0921398  -0.6286390   0.4577549   0.7673151   0.0198090
  -0.0952733  -0.0222668  -0.1048777  -1.0792946   0.4188179  -0.0504955
  -1.2005374   0.5004004  -0.2768585  -0.1445935   0.3626953   0.1950970
  -0.4651059   0.8313445   0.3217975   0.3767029   0.5816337  -1.1691067
  -0.0572395  -0.0570521  -0.1405132   0.1730094  -0.2074026   0.2552454
  -1.3819663   0.4550509   0.3484678   0.0335659   0.0874190  -0.0387049
   0.5414175   0.4477403   0.1951982  -0.2575053  -0.4012130   1.0232734
   0.2756631   0.2064029  -0.1970598   0.9612214   0.3282625   0.3233299
   0.2052170   0.2242173  -0.2189367  -0.1748538   0.3092375   0.2460184
   1.1174533  -0.3265688   0.7534772   0.1019791   0.1807719   0.5449554
   0.3447980   0.3275257   0.0731489  -0.3615809   0.1800915   0.1753305
   0.5465717   0.0303396  -0.6482919  -0.0093436  -0.2335597  -0.1711106
   0.0192633  -0.2245432  -0.5908995  -0.0082361   0.4948115  -0.1565775
   0.2936726  -0.1110228  -0.0768997   0.2287128  -0.1655815   0.5625448
   0.8094661  -0.5399828  -0.1366266  -0.0076931   0.0949928  -0.3875118
  -0.2369042  -0.2298621   0.0456737  -1.0377944  -1.0408483   0.9137687
  -0.2443841  -0.1752299  -0.0605263  -0.3093584   1.1673909   0.4520449
  -1.1156186   1.2176284   0.6433171  -0.0270600  -0.3432272   0.1317688
   0.0696241  -0.3421124  -0.0164024   0.7992520  -0.4876209  -0.2519627
   0.1747875  -0.0270486  -0.2720312   0.6003733   1.4873983   0.2280593
  -0.1733608  -1.0068120  -0.6835336  -0.4276637  -0.0020114  -0.1481720
  -0.0068129   0.1643543  -0.5755215  -0.8035437  -0.7512178  -2.2232051
  -0.0687214  -0.0124168   0.0337899  -0.1332369  -1.1843431   0.9437638
  -0.1581117   0.9834094   0.0358391  -0.1054102   0.0813420  -0.0063490
  -0.2450714  -0.7130291  -0.0649782  -0.3627298   1.0152368  -0.5617738
  -0.3639601  -0.0839888  -0.1088952   0.0048706  -0.3518543   0.1485636
  -0.1934568  -0.0904977  -0.0560855  -0.1712537   0.0708727  -0.1185378
  -0.1491167   0.2613337  -0.2050925  -0.2147704   0.2526396  -0.0640127
   0.1325659  -0.0413335  -0.3034843   0.3932198  -0.0388143   0.0003320
   0.2138739   0.2782474  -0.7770725   0.0958007   0.1722434  -0.0091026
   0.2570208   0.4186054  -0.8309021   0.7380177   0.5773782   0.3777897
  -0.2856856   0.0373263  -0.2332087   0.3610649  -0.1667378  -0.7589867
  -0.6522426   0.7601648   0.1391175  -0.2613961   0.3360854  -0.1498049
  -0.4593883  -1.0424083  -1.1162726  -0.4696904  -0.0164848  -0.7935549
  -0.1027747  -0.0590809  -0.3044830  -0.9521648   0.0549290  -0.5894458
   0.4867326   0.5251351  -1.1268481   0.0726989   0.0193591   0.0826030
  -0.0837247  -0.1116671  -0.4985153   0.3948605  -0.0351401   1.6691167
   0.0182247   0.1597802   0.0477437  -0.1050880   0.1009642  -0.6228817
   0.4220675   0.8642509  -1.2096805  -0.0581937   0.1224470  -0.2287936
  -0.2869554   0.4127202   0.1675159   0.4999233   0.0765744  -0.6428972
   0.0810405   0.0703818   0.2012572   0.4668353  -0.0692911   0.1224749
   0.0562962   0.5050845  -0.0042418   0.2972645  -0.0811507   0.3036817
   0.2910673  -0.1431565   0.3051660   0.2843157   0.4780278   0.2496269
   0.0622951  -0.2645804  -0.1535751   1.3793469   0.4646360   0.4363412
  -0.1622377   0.5245103   0.4516372   0.1368162   0.0017390   0.2445017
  -0.2843733  -0.2022078   0.3437843  -0.0014082   0.2001341  -0.0061862
   0.1784678   0.1106886   0.0571927   0.3639160  -0.1489926   0.0515662
   0.4059245  -0.9232025  -0.6221103  -0.4788083   0.0983649   0.0565236
  -1.0631235  -0.9300669  -0.0641479   1.2293955   0.2201870   0.0909823
  -0.0185016  -0.3119485   0.3030816  -0.1170022   0.1098090   0.2279181
   0.3502441  -0.1077275   1.0241861  -0.1108061   0.0357244   0.1609476
  -0.8676600  -0.2581349  -0.2960375   0.3423537   1.7179723   0.9314880
   0.2042911  -0.1434835   0.3233360   0.0233783  -0.1806797   0.7544797
  -0.1324987  -0.0081264   0.0764496   0.0087777   0.0375833   0.0485263
  -0.0869941  -0.2079117  -0.3460163   0.2946295   0.2206311  -0.0584032
  -0.0134993  -0.0504262  -0.6048299  -0.2413965  -0.1608166  -0.1913509
   0.5901207  -0.3371151   1.2914275   0.1781472  -0.0391221  -0.0652965
   0.8241779   0.5313594  -0.2925872  -0.1736367   0.1830567   0.1612088
   0.0526158  -0.3413995  -0.1359631  -0.0718960   0.3564863   0.6447124
  -0.3061662  -0.3202313   0.8895879   0.0663453  -0.0126704  -0.0743532
   0.0149769   0.3131366  -0.5503308   0.3999277  -0.0918758   0.3887085
   0.3639202  -0.2743755   0.0454666   0.3857385  -0.1317389   0.0015191
   0.2814065  -0.3636240   0.2229351  -0.0026209   0.2466479   0.0827393
  -0.3202042   0.7753587  -0.2477672  -0.2352472   0.9763232   1.0150393
  -0.2674809   0.0137950  -0.1049647  -0.1456012   0.2978379  -0.1084721
  -0.3370502  -0.5105454   0.1546938  -0.1537559  -0.0973588  -0.2599852
  -0.3833323   0.6185500  -0.3148516  -0.3980749   0.8667381  -0.1700364
  -0.1990977   0.1781029  -0.0689891  -0.1519994   0.1370986   0.5842039
  -1.3321057   0.4708292   0.1604066   0.2229506  -0.0534036   0.1285822
   0.1908297  -0.3161506  -0.8261108   0.1242250  -0.1026692  -0.0547180
   0.1712670   0.3472589   0.3024397   0.3965820   0.0455726  -0.3185521
   0.9526003   1.2657495   0.0807511   0.0129501   0.0917526  -0.3166255
   0.3845265  -0.6615318  -0.3550669   0.2968409  -0.1117062  -0.2275514
   0.1339417   0.1540325   0.0401059  -0.0451351   0.4132420   0.2216990
   0.0832624  -0.2769015   0.6194858   0.1038288  -0.0184473   0.0967393
   0.0586021   0.0220760   0.1449617  -0.2893791   0.1406562   0.1179517
   0.0375924  -0.1524412   0.3216845  -0.1038492  -0.3786533  -0.4052491
  -0.4874742  -0.1122867  -0.1393071   0.1530530  -0.0652318  -0.0028454
   0.6474487   0.0764471  -0.2507249  -1.0976399  -0.1615528   0.8704078
  -0.0186193   0.1715572   0.0836015  -0.0438849   0.6414089   0.8154242
  -0.0679636   0.0695611   0.1688234  -0.3174721   0.1746790  -0.1360842
   0.1090740   0.5189842  -0.5438941  -0.1251848  -0.1929811   0.7170259
   0.0349330  -0.2421436  -0.0372201  -0.0575654   0.6851575  -0.2802100
   0.6037997   0.0258352   0.8832401  -0.0478363  -0.1905413   0.1759448
   0.3015356  -0.1542835   0.8076924  -0.2935360   0.1189590  -0.4747546
   0.0360284  -0.0471159   0.2002765  -0.2377724   0.0753905   0.1527917
   0.3310103   0.3736162   1.1220203  -0.0841286   0.0603505  -0.1471774
   1.6036104  -0.6854526   0.4134303   0.1012227  -0.3487818   0.0385487
   0.0561397   0.0938212  -0.0923381   0.8468358  -0.4497200  -0.3376541
   0.1437971  -1.7479457  -0.7747945  -0.2332028  -0.2230556  -0.1156888
  -0.0159301  -0.0752414  -0.0768222  -0.8535909  -0.5822775  -0.1819763
   0.1611041  -0.0995282   0.0521928  -0.3774461  -0.0534019   0.3624132
   0.3998282  -0.1169952  -0.0133508   0.0950384   0.2108448   0.1645904
   0.8555379   0.4999229   0.2823487  -0.3223539   0.7773759   0.7134544
   0.0722703   0.4375116   0.0120813  -0.0367016   0.0421252   0.6626725
   0.0276808   0.6051406  -0.1540724   0.0877024   0.3940246  -0.1684564
   0.1689921  -0.1425927   1.2029491  -0.9795320  -0.4394340  -0.2572349
  -0.1478964   0.0195960  -0.2165463  -0.3481231  -0.3288155   0.3567983
   0.1500640  -0.6624986  -0.4862254  -0.3076460   0.1111441   0.5592483
   0.5103661   1.0946040   0.1800979   1.7178480  -0.2482566   0.2262194
  -0.1566859   0.2733136  -0.0529130  -0.0235897  -0.3955804   1.1763869
   0.2131877  -0.2090133  -0.6097185   0.0532544  -0.3215532  -0.1294437
   0.0109216  -0.2503803   0.0624741   0.1172369  -0.9421425  -1.1234592
  -0.1014483   0.0086219  -0.1306230  -0.1923338   0.0712273   0.4409124
  -0.5026025  -0.2194210  -0.7296991   0.1048703  -0.1514783  -0.0666869
  -0.1961619  -0.0308778   0.0907650   0.2389411   0.8547238  -0.0751471
   0.0969542  -0.1396409   0.1601565   0.8833467  -0.0389601  -1.1872575
   0.4701111  -1.0515936  -1.5184820   0.3285885   0.2867118   0.1078460
   0.3419929   0.4885266  -0.0762810   0.4119511   0.9032495  -0.0640040
  -0.3056687  -0.1744888  -0.1273528   0.2070833  -0.2842173   0.3391660
   0.1943201   0.1873679   0.1044434  -0.0512804   0.0998442  -0.1829345
  -0.1357680   0.2615536  -0.1438044  -1.5948520  -0.1211174   0.6312442
   0.1852278   0.0951703   0.1163476   0.5711896   0.9562268   0.1124071
   0.7198033  -0.3323098   0.6006087   0.0233447   0.0833685   0.0039043
  -0.3597574   0.0836124   0.0142059  -0.0616722   0.3189466   0.2477423
  -0.0914121   0.1274997   0.1770871  -0.3688819   0.5835613   0.1447549
   0.2624545  -0.4105591  -0.2613837  -0.2191147   0.3865110   0.4412594
  -0.3252676  -0.2319476   0.2322448  -0.0734834   0.5915508  -0.6614281
   0.2201215   0.3001386   0.3329672   0.4568547   0.3963174  -0.2926476
   0.9298288  -0.0227467  -0.6239417  -0.2870322   0.0407869   0.2652771
  -0.9570358  -0.9453013  -0.5344242  -0.5741016   1.0473290  -0.1047113
  -0.0852708  -0.1369193  -0.1307597   0.1509946  -0.1950581   0.1325747
  -0.4237938  -0.6302908   0.3056831   0.1057977   0.0696640   0.4261205
  -0.2784980  -0.2451009  -0.9766450  -0.0092264  -0.4124136   0.0635473
   0.1534693  -0.1148077  -0.0894882   1.1170183   0.5076219  -0.2343480
  -0.5239733   0.3106054  -0.6668406   0.1677647   0.0784619  -0.2130495
   0.3543309  -1.4282300   0.1635702   0.1386734   1.3436096  -0.3556796
   0.1863450  -0.0145527   0.2243700  -0.7441867   1.1009256   1.2335706
  -1.3738457   1.0552399   0.0857569  -0.3882922  -0.2563052   0.3203462
  -0.8032395  -0.1023067   0.7225365  -0.5025318  -0.1129412  -0.7152348
  -0.0118603  -0.0430653   0.0782409  -0.6112410   0.9700406  -0.2601976
  -0.4702795  -0.8990973  -0.5748596  -0.1370658   0.0822131   0.1518554
  -0.2155585   1.4104305  -1.1425550  -0.3644355  -0.4479612   0.5691263
  -0.1149155   0.0469810   0.0622523   0.1665612  -0.7692314   0.6822471
   0.3199553   0.8340732   1.0406806  -0.1145525  -0.0922969   0.1380231
   0.2598803   0.0509559   0.2039284  -0.1590856   0.0067113   0.0368254
  -0.1673615  -0.2108654  -0.0331060  -0.0308793   0.0281945  -0.1552169
  -0.0002496  -0.0553301  -0.0243179   0.0746301   0.3725134   0.0690765
  -0.4431153   0.7169181   0.1157711   0.1375889  -0.3757524   0.4036744
   0.0728877  -0.1546256  -0.0373848   0.0142609  -0.3885535   0.0909805
   0.2628562   0.2820199   0.2154393  -0.3353608  -0.0775224  -0.0698766
  -0.6453030  -0.7852089  -0.0981552  -0.1301573   0.4260362  -1.1138219
  -0.0511006  -0.0167869  -0.2235152   1.0896114  -0.9642433   0.0752632
   0.2572274  -0.6630376  -0.4009820   0.3408852  -0.1326903   0.2837608
   0.8340964  -0.9689339  -0.0293779  -0.3526230  -0.7543497   0.7384520
   0.0105137  -0.3921688  -0.0698779  -0.2199846  -0.5956132  -0.4450817
   0.1654447  -0.7257889  -0.7431357   0.2227003  -0.0046769   0.0345007
   0.0218416  -0.6332846   0.5961238   0.4431730   0.2084072   1.1368479
  -0.0456221   0.0391582  -0.0570590  -0.1729112   0.5948657  -0.4100821
   0.2801405  -0.4081166   0.4388553   0.4585664   0.1260474   0.0838855
  -0.2386047   0.1245141  -0.1762273   0.1643563  -0.1113828   0.1351969
  -0.2810787  -0.2811936  -0.1660226  -0.1100774  -0.0645856  -0.5945473
  -0.0275002   0.5338957  -0.0992667  -0.3444883   0.1340002   0.0506073
  -0.9306751  -0.5093503   0.5246609  -0.9293487   0.9354688   0.3464802
  -0.0090365  -0.0132417   0.3001124  -0.9227110  -0.6055718   0.0397977
  -0.0844125  -0.3886089  -0.7085524  -0.0196162  -0.2233798  -0.0675976
  -0.9853815  -0.9074656  -0.0927283   0.0406465  -0.0634749  -0.5152775
   0.1333009   0.0281458  -0.0920355   0.0683097   0.0302506   0.1170450
  -0.2466087  -0.1488956  -0.1622087  -0.0404951   0.1081819   0.1266276
   0.1656400  -0.4910063   0.5682823   0.1251357  -0.1079496  -0.6680403
   0.1040477  -0.4717164   0.1056428   0.1363213  -0.9665817  -0.9038036
   1.0713864   0.0620413   0.2788811  -0.2532976   0.1179911  -0.1436635
  -0.2874404  -0.0102471  -0.4285928  -0.0820717   0.5183299   0.3378918
   0.3633381   0.2868346   0.1205975   0.3506718  -0.0485515  -0.7843182
  -0.3410396   0.1153676   0.8958601  -0.0211205  -0.1447303  -0.1489715
  -0.4354897  -0.9026358  -0.7103572   0.1270861   1.0598202  -0.7508653
   0.0537227   0.0818003  -0.1227436  -0.5089617   0.2508173   1.0924346
   1.2133660   0.1094639  -0.1811574  -0.2096271   0.3694363  -0.4110865
  -0.2382054  -0.1356652   0.3380718   0.8580843   0.4559002  -0.8661118
   0.0472957   0.0002972   0.1426943  -0.4513800   0.0553177   0.3967751
  -0.2421123  -0.0787346   0.3606280   0.1376367  -0.1033576   0.1193032
  -0.6127002  -0.0639043  -0.9798982   0.0340766  -0.3769213  -0.0713552
   0.3417841  -0.0048983  -0.0684116   0.1890153  -0.4031988  -0.9918545
   0.2424906   0.0197015  -0.3929636  -0.2114302  -0.1843842  -0.3670688
  -0.9657967  -0.3263025   0.4653487   0.8181961  -0.4018565   0.0972304
  -0.0664412   0.2142961  -0.0360701  -0.2205884  -0.2368994   0.0300347
  -0.3471910   0.5206825   0.1041079  -0.2725957  -0.1839956   0.4928067
   0.3486040   0.9056772   1.0599884  -0.1064882   0.0922882   0.6405631
   0.0569104  -0.1246078   0.1036241  -0.1852987  -0.3792132   0.3860047
  -0.0592111  -0.3463686   0.2336955  -0.2285496  -0.0402112  -0.3327814
  -0.3420490  -0.1697959  -0.3356300   0.1316688  -0.2544860  -0.4306786
  -0.1680705   0.1511543   0.2490686   0.3295654   0.1723883  -0.0694132
  -0.2807893  -0.1311403   0.2681046  -0.3161318   0.1127767  -0.2982072
  -0.3135795   0.1247186  -0.4330757  -0.3020002   0.8723463   0.2025866
   0.0995693  -0.0958245  -0.0503635  -0.1266529  -0.0664379  -0.0634726
  -0.2676026  -0.0647437  -0.0707494  -0.2686770   0.1557200  -0.0769041
  -0.8501324   0.3450604  -1.1663927   0.1317317  -0.0593862  -0.7817599
   0.1288803   0.0753282  -0.0747087  -0.9710134   1.3629307  -1.5559804
   0.1737755  -0.0577924   0.0855091  -0.1071372  -0.2974193   0.0394386
  -0.6632463  -0.3881627   0.3983324   0.3054369  -0.8103319   0.2208814
   0.1168200  -0.1765715   0.0732813   0.5447162  -0.1499416  -0.6255688
   0.3578441  -1.4658171  -0.2668517  -0.4250228  -0.3609111  -0.1333696
  -0.0616154  -0.7008343  -0.4653824  -0.3136833  -0.6479004   0.8689482
  -0.0508242   0.0387282   0.2327211   0.2610108   0.7870346  -0.0284610
  -0.0792434  -0.0493454   0.2459277  -0.0978366   0.2174235  -0.0521397
  -0.2733398   0.2906215   1.0572500  -1.0251312  -0.2907513   0.5375409
   0.1735045  -0.3042460  -0.0146051   0.1564166  -0.6117062  -0.1819051
  -0.0369119   0.1162475   0.5244987   0.1787050   0.1845197  -0.1509491
   0.7738287  -0.5102313   1.0211040   0.0276765   0.9277191  -0.4432912
   0.1058482  -0.1071860   0.2233011  -0.5578660   0.2381782  -1.0464705
   0.4764467  -1.5356766   0.2167993   0.0226260  -0.1103957  -0.1752651
  -0.0796227   1.9524992   2.0202660   0.1116815   2.0706886   1.7756191
   0.0522450  -0.2754899  -0.1571315   0.4853786  -0.4940701  -0.1554775
   0.1928892   0.0124579  -0.4109833  -0.0609912   0.3625778   0.2170035
  -0.2220162  -0.5679075  -0.1970027  -0.0505207   0.2618169  -0.5084059
   0.0655237   0.1252211   0.1170700  -0.7893976   0.3116425   0.4001131
  -0.9734920   0.0198789   0.0126157   0.0904281   0.1886866   0.3629029
   0.9442384  -0.8609714   0.4312782   0.4593254   0.1567682   0.0036983
  -0.4573416   0.0307592   0.4215550   0.3198233   0.5092319   0.1246922
  -0.8866805   0.3515826   0.2946875   0.0423223  -0.1583899  -0.0452037
   0.4708328   0.2031925   0.7291436   0.2002682  -0.5345972  -0.2129684
  -0.2411311   0.0564116  -0.0405474  -0.2549389   0.6560735  -0.0003099
  -0.4510301   0.2690346   0.3410940   0.0615137  -0.3147276   0.0140399
   0.8328780   0.4049524  -0.5071696   0.0595502  -0.0242411   0.6261653
  -0.0107858  -0.1264235  -0.0655349  -0.1863694  -0.1943866  -0.1201629
   1.0719658   0.4333699  -0.3473777  -0.1420284  -0.3086055   0.0838731
  -0.8246747  -0.0214981   1.5028593   0.6745125   0.8088324  -1.5793288
  -0.0858505   0.2492327   0.2550295   0.3107303   0.5262130   0.7733011
  -0.5291385  -0.6283211  -0.2858855   0.2856370  -0.0623999  -0.0747196
   0.2447550  -0.0691042  -0.1859290   0.4961305  -0.0541857  -0.1565468
   0.0421165  -0.0175434   0.2561226   0.4143175   0.8753225   0.2194087
  -1.0252186  -0.0887972  -0.0144288   0.2616332  -0.1568083  -0.2019671
   0.7419361  -0.2942084   0.4009609   0.9270294  -0.4107277   0.6684596
  -0.1846533   0.2606826  -0.3174766  -0.2619463  -0.4452740  -0.8955468
  -0.1369908   0.7470263  -0.0606001  -0.2032721   0.2314148   0.1456428
  -0.6569602   0.4017295  -0.6347717   0.6859862   0.4830516  -0.0204033
  -0.0582491  -0.2688606  -0.1311936  -0.7985324   0.7414029   0.1764008
   0.0353263  -1.5730229  -1.1104303  -0.1869939  -0.1457214  -0.0308494
  -0.0564336   0.2631075   0.0706758  -1.7518561   1.2263357   0.5954818
   0.3037267   0.0016237   0.0501697  -0.3758634  -0.2870947   0.3055174
   0.0629594   0.7815011  -0.2667137  -0.0119372   0.0224361  -0.0015995
  -1.2072557  -0.1728131   0.7278035  -0.6612758   0.1143996  -0.8550396
   0.2418864  -0.0267689  -0.2509175   0.7612093  -0.7115474  -0.1749048
   0.8855058   0.3460144  -0.6338253  -0.0369324   0.0305433   0.2128220
   0.3980299  -0.1328991   0.1093158   0.7505895  -0.4142119   0.2761362
   0.2501212  -0.1674126   0.1791892   0.3963800  -0.2830706   0.3170301
  -0.3223955   0.6774615  -0.0642138   0.1811425  -0.0279968  -0.4474810
   0.4953721   0.2793615  -0.9283617   0.1718673  -0.6288456  -0.8017413
   0.2201503  -0.1746953   0.1638908   0.6107806   0.3229019  -0.2318522
  -0.1814112  -0.5990566   0.2257005   0.2478764   0.3502733  -0.0702089
   0.4855035   0.1238703  -0.4228456  -0.0819134  -0.4122327  -0.0066011
  -0.1078352   0.0947039   0.0948330  -0.1670712   0.1038523   0.2074543
   0.2214971   0.2193504  -0.1874665  -0.1332278  -0.1671265   0.3929617
  -0.0221915  -0.3413020  -0.1930623  -0.5816043  -0.0923458   1.1308525
   0.0073480  -0.0237342   0.1718104  -0.0237774   0.0714145  -0.3213354
   0.6761981   0.6794183  -0.0390206   0.1105681   0.1049707  -0.0088172
  -0.0412009   0.4209406   0.5908652  -0.0574272   0.5585321   0.7156057
  -0.0917648   0.0397172   0.1478697   0.2598042  -0.2474217   0.0478932
  -0.0429540   0.0387857   0.1107321  -0.1657222  -0.1920361   0.0666931
  -0.1889073  -0.9221489  -0.6777021  -0.8000678   0.8288269   1.2029892
  -0.1921605   0.0838505  -0.1490039  -0.2215648   0.1246560  -0.1582633
  -0.0344860  -0.0842675  -0.1234895   0.1850527   0.3358889   0.2246229
   0.3323536   0.4187170   0.4341206   0.1582442   0.4762094   0.0670744
  -0.0916032   0.1575725   0.0955886  -0.7635937  -0.1034012   0.9054457
  -0.2200861   1.1215177   0.0149684   0.1617119   0.1684054  -0.2770480
   0.3169084   0.1545834  -0.3503885   0.2746323   0.2618112  -0.3116762
   0.1300287  -0.3891010  -0.1295625   0.2978930  -0.1842014  -0.3612526
   0.7192695   0.9828838   0.5257256   0.2875225   0.0291480  -0.5739974
  -0.6446091   0.4291297   0.3634842   0.6597947  -0.2939090   0.7098165
  -0.2526243   0.0264487   0.0148200  -0.2585978   0.0712337  -0.7257368
  -0.1187988   0.0619225  -0.7601239   0.0601763  -0.1411621  -0.0156872
  -0.3994180  -0.3155722   0.8571167  -0.2578679  -0.0314166  -1.4510329
  -0.0574642   0.0566749   0.2663416   0.4507924  -0.4587316  -0.3838966
   0.0815961  -0.5408277   0.7444570  -0.0405215   0.1474896  -0.0806435
  -1.4349245  -0.0863614  -0.6225914  -0.3205224   0.4467909  -0.7121239
   0.1295723  -0.1729062   0.0972709   0.6580104  -0.4623256  -0.2329227
   1.3453574  -0.8951890  -0.9033450  -0.0900075   0.0780177   0.2532529
   0.0937197  -0.4827633  -0.1992575   0.0993229  -0.4647894  -0.1512417
  -0.0300210  -0.0444921   0.0763262  -0.4811769   0.1698918   0.3941801
   0.0237015   0.1031499   0.5138013   0.1187166  -0.2134945  -0.0116572
   0.9748386  -0.6944581   0.1653997  -0.6823292  -0.2840453  -1.1376877
  -0.1899568   0.0205950  -0.1438192   0.5710237  -0.4887927  -1.0490409
   0.4971134  -0.2672756  -0.5622489   0.0718179  -0.0052841  -0.0238222
  -0.0210421  -0.9544652  -0.7183294   1.2100253   1.2992178   0.6997709
   0.1689208   0.5360543  -0.1196212  -0.2349303   0.5021664   0.0876914
   0.2287732  -0.0211559   0.3741028  -0.2051010  -0.0060888  -0.1070345
  -0.1299929  -0.7362445  -0.4314065  -0.3455174  -1.0078855  -0.4483409
   0.1611905  -0.0820223   0.2774891   0.2629165  -0.3337024   0.7612746
   0.1285756   0.4794941   0.2878261  -0.0190916   0.1423525  -0.3183177
   0.0531519  -0.1208119  -0.4484017   0.0997103   0.3309758  -0.5060083
  -0.2045107  -0.0956614   0.2013188   0.5396216  -0.3763589   0.7281732
  -0.2104017  -0.5427450  -0.0237631   0.1641584   0.2059285   0.1057024
   0.9692332   0.1261252   0.7809000  -0.7561535  -0.1727248  -0.6379839
  -0.0361566   0.0565135  -0.1106479  -0.3243169  -0.3707998   0.0668921
  -1.3058885  -0.7857131  -0.0989431  -0.1072776  -0.1338087  -0.3880011
   0.4819737  -0.3560606  -0.6379028  -0.5589948   0.6957880  -1.4516220
   0.1265740   0.2793651  -0.0395307   0.4507626   0.4404327  -0.1653725
   0.1941664  -0.0921435  -0.0154498  -0.1140227  -0.1302414   0.1458689
  -0.7541531   0.2443285  -0.3105855  -0.7439463   0.2510586   1.1368886
   0.0994186   0.1645958  -0.2356427   0.2462184  -1.6883443  -0.5411706
  -0.5046289  -0.3702993   0.6223865   0.0816666   0.0858178   0.1456244
   0.5426893   0.0051103   0.3595465   0.9853876   1.5861179  -0.6371508
   0.1153317   0.1012650  -0.3275177  -0.3335220  -1.1759858   0.7077675
   0.1371069  -0.8638263  -0.7276622  -0.0045217  -0.0565370   0.2885646
   0.1642086   0.7680727   0.1443846   0.2578663   1.3893736   0.4082492
  -0.0809491   0.1944021  -0.0197343   1.2290033  -0.8481585   0.1306206
   0.0449541   0.0415727   0.0134501   0.1686851  -0.0373490  -0.2625067
   0.4873269  -1.1676075  -0.2612238   0.0700111   0.1597246   0.0037863
   0.2056777   0.2661933  -0.1682940  -0.4020408   0.4523280   0.0336354
   0.8975289  -0.5630365  -0.6335701  -0.2017418   0.2865826  -0.1626090
  -0.9132818   0.9679160  -0.6563589   0.2920825   0.3781595  -0.9442825
   0.1471345   0.0932592  -0.1345968   0.6896396   0.0339998   0.3351558
   0.7037499   0.0406000   0.5380531  -0.2171397  -0.2716857  -0.0104413
  -0.2545384  -0.6378017  -0.3843448   0.9056637  -0.0841518   0.0068942
  -0.1107577   0.4299738  -0.3204136  -0.3383821   0.6519193  -0.0221733
  -0.9990877  -1.1843901  -0.2782119  -0.0577725  -0.1580718  -0.2217918
  -0.1326268   0.1363131   0.3988026  -0.3519038  -1.2177945  -0.2059960
   0.0195509  -0.0294713   0.0088067  -0.0969952   0.0008587  -0.0608296
  -0.2635331   0.0213975   0.6601816   0.1382792  -0.3227185  -0.2696774
   0.0695867  -0.2590464  -0.2206798   0.1072417  -0.4323852  -0.5857732
   0.1083721   0.0607841   0.2818038  -0.2307444  -0.5055973  -0.7413932
  -0.2598092   1.3047472   0.0540794   0.2880161  -0.1943830   0.2646527
  -0.1288057   0.7113531  -1.2997542  -1.3998135  -0.8256685  -0.0724656
   0.0784904  -0.0789910   0.1551193  -0.5378199   0.2331598   0.3439763
  -0.5214095  -0.3100813  -0.0778890   0.0365969   0.2876326   0.0919075
  -0.2524194   0.3280938   0.1493062  -0.6599676   0.4758099   0.2476090
  -0.1877676   0.0615136  -0.0583843   0.5584053  -0.0453624  -0.1362909
  -0.9235720   0.3067801   0.0519566  -0.2449102  -0.2817488  -0.2626307
   0.2395026   0.0291883  -0.0149665  -0.0855827  -0.4907473  -0.8163181
   0.2433067  -0.3157550   0.2041461   0.6878373  -1.6382648  -0.0893431
  -0.6604244  -0.5997156  -0.5733771   0.1645478  -0.2779115   0.2828142
  -0.8950475  -0.1096363   0.1283006   0.7257035   0.4310861   0.2901142
   0.2285984  -0.0559905  -0.1783348   0.5570653  -1.2485713  -0.4966799
   0.3517988  -0.4355217  -0.0860509   0.1135565  -0.1283064  -0.0747717
  -0.0479708  -0.7272993   0.2152555  -0.3391520   0.3194051  -0.0296325
  -0.4245288   0.1971846   0.1652537  -0.2563012   0.3956222   0.1945794
  -0.6141143   0.3431351   0.3062237  -0.0248118  -0.2917525  -0.1348343
  -1.3243193   0.6448820   0.2941595   0.3427736   0.0300639  -0.4862655
  -0.2015171  -0.3818214  -0.4134767   0.1571408  -0.2737989   0.9754151
  -1.0968370   0.4840598  -0.8938505  -0.1049277   0.2146901  -0.2296553
  -0.1040387   0.4055608  -0.6181144  -0.2407731   0.2358671  -0.0616286
   0.0961629   0.1688874   0.4267963   0.2084604   0.6919855   0.6513127
  -0.0089244  -0.0355832   0.6086241   0.0157210   0.0835053  -0.0530584
   0.2128933   1.1442777  -1.5278156  -0.6153644   0.5376696  -0.4287867
  -0.1817591  -0.1844141  -0.1578069  -1.3130843   0.6557978  -0.4610165
  -0.5114490  -0.5944268   1.5835780  -0.0231256  -0.1330282  -0.1854653
   0.2199927   0.6739217   0.4005990  -0.3555966  -0.4239647  -0.2080173
   0.1460387  -0.1538189   0.1349956  -0.3361860  -0.7118144  -0.1560371
   0.7745858  -0.5792408   0.6575525   0.2816375   0.0255533  -0.1308547
   1.1829653  -0.8281231  -0.2166299  -0.3199986  -0.2791323   0.1748987
  -0.0933107   0.1917245  -0.0377846   0.9815726   0.0202508  -0.0375794
  -0.0934677   1.2217297  -0.3884913   0.0856896   0.1153391  -0.1478311
  -1.4225839  -0.1462170  -0.5481161   0.4381111  -0.1845618   0.3553673
  -0.1628410   0.3782202   0.1342710   0.9772533  -0.4689685   0.9763719
  -0.2720379   0.3810789  -0.0126745   0.4055107   0.1194313  -0.0015232
  -0.6394452   0.7655935   0.3837513  -0.3947945  -1.1659399   0.2408260
  -0.1198217  -0.2876212  -0.2692490  -0.0299434  -0.0971237  -0.2758194
  -0.7342325  -1.0433845  -0.3577037  -0.1664868   0.2628388  -0.1265275
  -1.0845248   0.3668518   0.3183487   0.0946099   0.7058426  -0.0606889
   0.1628416  -0.1589560   0.1424438   0.3494378   0.3883360   0.6354340
   0.1954296  -0.0633144   0.2285469   0.1175392   0.2292314  -0.2212847
   0.0030261   0.3793390  -0.4374741   0.2961164  -0.2036914  -0.6376799
   0.0521087  -0.1800797  -0.0055502   0.1186015  -0.1756112  -0.2525109
  -0.9796603   0.4317623  -0.7646697  -0.0695280  -0.0083317  -0.0559469
  -1.0535530   0.2258741  -0.9670939   0.4091035   0.3220985  -0.2986565
  -0.0309059  -0.0556210   0.0232737   0.4766369  -0.7592889   1.0991027
   0.3867886   0.6492635   0.2852281  -0.1836211   0.2461353   0.0420881
  -0.3637232   0.3568791   0.1947036  -0.1228449   0.5150899   0.0384211
  -0.2687872  -0.2103835   0.0146167   0.0664543   0.4932652  -0.1401383
  -0.0990972   0.0004946   0.2262039  -0.1903470  -0.0737496  -0.2841616
   0.9949383  -0.3211069  -0.1565703   0.1362072   0.2907886   0.6787897
  -0.1783227   0.3128529  -0.1044731   0.0372447   0.0616650  -0.6633165
  -0.5977277   0.4940219   0.7923830   0.1309909  -0.2009207   0.2011763
   0.3687339   0.0805940  -0.2615328   0.2124159  -0.6028163  -0.2181382
  -0.2119306  -0.1413122   0.1515182   0.0870366   0.6318653   1.0510558
  -1.3390626   0.5301516   0.2082557   0.0247680  -0.0538425   0.0400065
  -0.8996351   0.1154716  -1.2535461   1.6500089   0.0532394   0.6233799
  -0.0405911   0.2135744   0.3329695  -0.6482024  -0.0854953   0.5264493
   0.0147185   1.0245357  -0.2142470  -0.0579697   0.1132356  -0.3347293
   0.8879822   0.9633989  -0.1209504  -0.3416058  -0.7846891   0.4765330
  -0.3767447  -0.0214200   0.0233822   0.5633898   1.0815426   0.3590370
   0.6952342  -0.2890314  -0.0849628  -0.2134603   0.2853144  -0.3276902
  -0.0535185   1.1576636  -0.9727284  -1.3477083  -0.0108863   0.0008682
   0.0666783  -0.1831060   0.0602281  -0.3947845   1.9692514  -0.9405300
   0.1029183   0.0237041  -0.4274562  -0.2049317  -0.1341687   0.2082187
  -0.5509392  -0.5137135   0.3280285  -0.0325833   0.0286904   0.0821834
   0.4518799  -0.0874225   0.2961511  -0.0613421   0.5289686  -0.2784960
   0.3331274   0.0289167   1.0656542  -0.0963801  -0.1690988  -0.4390520
   0.1406343  -0.3688514  -0.7328027   0.0382978  -0.2399356  -0.6397071
  -0.1656536  -0.0439404  -0.2730341   0.2318861  -0.2634041  -0.0917594
   0.0257314   0.4087659   0.2129245  -0.1425446   0.1210087  -0.0278789
  -0.2610170  -0.0693964   0.2971939   0.1638557   0.6297563  -0.6676524
   0.0912733   0.0943837  -0.0251719   0.1563402   0.5186472   0.3689681
   0.0128204  -0.5374446  -0.1932975   0.2166033  -0.2130578   0.0011755
   0.1978585   0.7833736   0.5186034   0.7215922  -0.8213643   0.4779012
   0.0375413  -0.1393476   0.0332771  -0.1315427  -0.1232692  -0.4564429
   0.0598472  -0.2768839   0.4060682  -0.0285240  -0.1397494   0.0280038
   0.2426412  -0.0975101   0.7177055  -0.1414488   0.4483180   0.9669507
   0.3036793  -0.0190577  -0.1280231   1.1387311   0.2836375  -1.1133022
   0.5354843  -0.9369182  -0.1574980   0.1962908   0.1827972   0.0218406
  -0.2890829   0.0522595  -0.1700351   0.6789077   0.3793466  -0.3155489
   0.2926749  -0.0033063  -0.2504223  -0.3510587  -0.0004180   0.8137260
  -0.2682478   0.1326198  -0.1827935   0.1514188   0.1645257  -0.1060532
  -0.2484201  -0.6155213   1.1337965   0.3398155   0.7680837   0.3674399
   0.0536064  -0.0174550  -0.0204770   0.4674102  -0.6154074  -0.0656056
   0.0162056   0.1119143  -0.0878662   0.0111797   0.0224261   0.2729024
   0.6545475  -1.2064483   0.2006044  -0.9787567   0.2227848   0.9568390
   0.1909253  -0.0573535   0.0882403  -0.7867605  -0.6645358   0.8011503
   0.4815522  -0.6119008  -1.2054682  -0.0338444  -0.1004188   0.0301003
  -0.0089285   0.4733827   0.4678889   0.0385033  -0.4799742   0.4737316
  -0.2234696  -0.0811062   0.0101535  -1.5911184   0.3472383  -0.2111724
   0.0926759  -0.2176055   0.4648050  -0.0376621   0.2057248  -0.2157019
  -0.1014581  -0.2365009   0.0675926  -0.2885225  -0.2350771  -0.0627707
  -0.0383897   0.2974574   0.2518097   0.5165968   0.2314399   0.9708228
  -0.7654881   0.3975698  -0.6897277  -0.1318063  -0.3131298  -0.0349420
  -0.7362209  -1.2464019  -0.3868836  -0.0833522   0.1820373  -1.1388333
  -0.0648044   0.2644456   0.2108373  -0.0085966   0.1469174   0.2179811
   0.2680362  -0.6883805   0.1084361   0.2163376   0.0047122  -0.0008322
  -0.5043604   0.9613698  -1.3502302  -0.4078730  -0.0299015  -0.2414295
   0.0144371  -0.3733522  -0.1104695   0.5340772   0.0313439   0.0878309
   0.2973671  -1.6361907   0.5035963  -0.2017451  -0.0260662   0.1317429
   0.0842111  -0.1113909  -0.0603432  -0.0576499  -0.1575466  -0.0232799
  -0.1784361   0.0880863  -0.1463669  -0.5167924   0.2951032  -0.3889166
  -0.4147537  -0.4748671   0.3035786  -0.0413891  -0.0993406  -0.2088483
  -0.4176822   0.8044165  -1.0168451  -0.0532277  -0.0222012  -0.7076598
  -0.1807477  -0.0302891   0.0441797  -0.6494995  -0.2020554  -0.0607739
   1.1781513   0.3942479   1.4374892   0.2017993   0.0980027   0.0003669
  -0.2664349   0.3586285  -0.3939609   0.3193241  -0.3582805   0.3405674
  -0.2288465  -0.0644638   0.0689370  -0.1012466   0.2034362   1.0431676
  -0.3599274  -0.3240076  -0.8861759  -0.0279429   0.1248632   0.1641316
  -0.3714806   0.8990380   0.0637378  -0.2034105  -0.2828711  -0.5038087
  -0.0769303  -0.1632862   0.0601835   0.0470287   0.2362657  -0.7057277
  -0.4601356   0.5637284  -0.0618369   0.1937728  -0.1363204  -0.1958212
   0.2687650  -0.2181305  -0.0867033  -0.1345085   0.7063281   0.5318457
  -0.0967019   0.0308561  -0.0397467   0.6680841   0.1752146  -1.3544216
  -0.7612402  -0.1128348   0.7732101   0.0651636  -0.1499162  -0.1377109
   0.1185525  -0.2614387  -0.1887502   0.1361819  -0.1175389  -0.2493799
  -0.0781500  -0.3188660   0.2255673   0.5987152   0.4129926   0.1443957
  -0.4846499  -0.4331193  -1.1095226   0.2665406  -0.0081009   0.0473596
   0.2193349   0.1962805  -0.0204426   0.3268077  -0.3049031   0.1572858
  -0.1431992  -0.3347917   0.2960290   0.6945417   0.2262761  -0.0216294
  -0.1649373  -0.0976228  -0.2427274  -0.1127588  -0.1260499  -0.0336440
  -0.6181523  -0.6627458  -0.4680357   0.2150821   0.0937729   0.0810388
   0.0118154  -0.0765632   0.1393865   0.1402466   0.1790924   0.2633352
   0.9183305   0.2321372   0.2650715   0.3052181   0.0604949  -0.1981243
   0.7559640   0.0074570   0.0985894   1.3217431  -0.0588402   0.4317252
  -0.1326986   0.2044594   0.2446390   0.3602514  -0.3593227   0.2703634
   0.9172692  -1.9007387   1.0607634  -0.1697059   0.1747905  -0.0133473
  -0.2864179   0.2657732   0.3362007   0.1912588   0.3430904   0.0818318
   0.0955909   0.0143904   0.1802232   0.4596148  -0.7759514   0.2119513
  -0.0112817   0.3340496  -0.6881457  -0.0538875   0.1394304  -0.1362761
   1.0244489   0.4906162   0.0384924   0.6019632   0.0592557   0.1086547
  -0.1764100  -0.0518613  -0.1251321   0.4170612  -0.0636281  -0.3302923
  -1.0823825  -0.3198951  -0.5001886  -0.0143064   0.0657637   0.0978881
  -0.1106235  -0.0637911  -0.6609597  -0.1299053  -0.2863275   0.4911960
  -0.2744187   0.0831026   0.1849747  -0.9094088  -0.3522552  -0.2345580
  -0.3593145  -0.1239243  -0.7555218   0.2539752   0.2208824  -0.0008446
   0.2581976   0.9226499  -0.1977550  -0.1133344  -0.1071512  -0.0484161
  -0.0300996   0.1430224  -0.2980413  -0.0938507   0.2027417  -0.7169122
   0.4650388   0.3011629   0.2519868   0.2684029   0.0334450  -0.1186676
  -0.1689730  -0.5205141   0.8312181   0.7252352   0.3069557  -0.8920676
   0.2584607   0.0032236  -0.1261512   0.8664790   0.4343126  -0.7368901
  -0.0050918  -0.1790770  -0.2317514  -0.0140146   0.1616327  -0.0439038
   0.0699235  -0.1395001   0.3265069   0.0334355   0.2666645   0.0843108
  -0.1443125  -0.0432842   0.1258315  -0.3762850   0.0016279   0.2011134
   0.4761245  -0.1729489  -0.0548437  -0.0584576   0.0954760   0.0605966
  -0.2307300  -0.5605351  -0.3900142  -0.1125527  -0.1534486   0.1041074
   0.1118418   0.2962968  -0.0491783  -1.1998748   1.0981023   0.3515141
   0.6125183   0.0076978  -0.7208274  -0.0343362   0.2037924  -0.1922329
   0.3427101   1.0213268   0.8803268   0.0589271   0.2884203   0.3994539
   0.0384800  -0.2484263  -0.2601731  -0.1026818  -0.1567538   0.7988412
  -0.6894149  -0.1351295  -1.1279501  -0.2248127   0.0916190  -0.1970282
  -0.2604613  -0.0604568  -0.0094866  -0.1501547  -0.0416365  -0.0731977
  -0.3729054   0.2392595   0.1805080   0.3189094  -0.2280093  -0.2754264
  -0.6810533   0.3616766   0.2837206  -0.0785968   0.3682583  -0.1833171
   0.7517194  -0.0890713  -0.5383333  -0.7668242   0.7531014   0.0834741
  -0.0006179   0.0783462  -0.1999520  -1.4279795   0.9308566  -0.8919007
  -0.4198797   1.0065845  -0.6883134  -0.1617035   0.0745547  -0.0865628
  -0.2863517  -0.1825994  -0.1570532  -0.7490529  -0.5527525  -0.0812004
   0.1087981   0.4981042  -0.1496382   0.3640691   0.2870506   0.8581545
   0.0659215   0.5326280  -0.2116558  -0.2745278   0.0306301  -0.2228411
  -0.3031313   0.0256846  -0.2795489   0.3842998  -0.3877932   0.2532974
   0.0681317  -0.1326064  -0.0791720   0.3239442   1.6214750   0.6601055
  -0.3696962   0.9989422  -0.3835268  -0.1170258   0.2385245   0.2245033
  -0.0551186   0.2229577   0.1545642   1.7134677  -0.0894014  -0.9833121
   0.0540259  -0.2235020   0.0864623  -0.2616009   0.2744818  -0.3751017
   0.4190524   0.6760911  -0.0707535   0.1777904  -0.0538248   0.1672742
   0.3847222   0.7300709   0.0796265  -0.8763326   0.2883428   0.8345396
   0.3384964   0.0043831   0.3113238  -0.8690357  -0.4174139  -0.4366573
   0.5125185  -1.0801581   0.2546814   0.0978056   0.1890177   0.1160504
   0.5995811   0.0534092   0.2878981   0.0154633  -0.7027542  -1.4473873
  -0.0821227  -0.2273112   0.0022476   0.2619239  -0.1836622   0.5392447
  -0.4189747  -0.4714133   0.3274320  -0.1056127  -0.3411173   0.0018649
  -0.1649108   0.2137082   0.1205852   0.7057158  -0.5320050  -0.6573205
  -0.0875260  -0.0209948  -0.0074436  -0.3699345   0.4062809   0.5460580
   0.1824637  -0.2509616   0.2259964  -0.1958443  -0.1280749  -0.0848645
   0.3854988   0.5642549  -1.1414680  -0.4489059  -0.8870382  -0.3153858
  -0.0762741   0.4265395  -0.2559264   0.2028273  -0.0583748   0.7953223
   0.1633879   0.0650655  -0.8512449   0.0684205  -0.1195169  -0.0280328
   0.1520905  -0.4961444  -0.4272417   0.2130606   0.6578192  -0.3062173
  -0.3897837   0.0620391   0.1829071  -0.7282042  -0.4640582  -0.2392516
   0.0442607   0.2983307  -0.3116220   0.1310412   0.0017711   0.3124521
   0.4345638  -0.9584999   0.7656915  -0.2009413  -1.9577220  -0.3133176
   0.1973409  -0.1525447   0.1721387  -0.4129383  -0.2004435  -0.4308991
   0.6320160  -0.2774256  -0.0833755  -0.0470036  -0.0488003   0.4501073
  -0.3498549   0.4096685   0.5412277   0.2728616  -0.6007395   0.1470939
   0.0841009   0.2965537   0.1263728  -0.5577673   0.6548810   0.3049624
  -0.3271133  -0.4070491  -0.7662724   0.1935330  -0.1070147   0.0049115
   0.0397752   0.2098980  -0.4089740   0.5822370  -0.3161608   0.3750452
  -0.0801494  -0.1492691   0.1270494  -2.0682377   1.8406394   0.1482500
   0.6813118  -0.9814011   0.0159334   0.0607556   0.3183390   0.2843553
  -0.2350267  -0.5671151   0.2465914  -0.5389783   0.5449278   0.6631677
  -0.1507920   0.1686409  -0.0062733  -0.2850189   1.0760901  -0.0651103
   0.6458103   0.6421173  -0.7342579   0.3935370  -0.1605306   0.1857400
   0.5636608   1.7618588  -1.3572943   0.4336751  -0.2878873   0.3112580
  -0.3039012  -0.2787637  -0.0846604  -0.2036820  -0.2689584  -0.7026059
  -0.3211080  -0.9947288   0.4509198  -0.0371852   0.3432931  -0.0346919
   1.0701138   0.0973903  -0.5439502  -0.6257996  -1.2393043   1.0591448
  -0.0294722   0.1386957  -0.3324739   0.9062013   0.1083795  -0.5019400
  -0.1428117   0.8865466   0.2431009  -0.0357637   0.3100350   0.3191228
   0.3114093   0.6864192  -0.2069286  -0.5568315  -0.2537402  -0.2592071
  -0.1318503  -0.0180217   0.0884527  -0.1951181  -0.5550207   0.2058628
  -0.3861385  -0.4926336   0.2546481   0.1966136  -0.1464359  -0.1482190
  -0.6694637  -0.3739541  -0.1637989   0.2601777   0.5164432   0.3503766
   0.1266250   0.1433167  -0.3960955  -0.2702811   1.1527923   0.1446879
  -0.3651529   1.4600539   1.4526016  -0.0208622  -0.1679277   0.2129678
   0.0323785  -0.7195992  -1.0043173  -0.1823079   0.2633071  -0.2773081
   0.0819305  -0.1457510   0.2415710  -0.2995731  -0.8624977  -0.4132010
   0.4221798  -0.2486286  -0.2545306   0.1702321  -0.0767332   0.0478885
  -0.3896846   0.1240413   0.5891336  -0.2192365  -0.2970601  -0.5550776
  -0.2039730   0.0180697   0.0118761   0.1629088  -0.3815996   0.5076499
  -0.6343559   0.1106978   1.0835799  -0.2134611  -0.1060444  -0.0604907
  -0.6565454   0.8343709   0.3635084   0.6972233   0.3808711  -0.9606785
  -0.0857679  -0.3200109   0.1135259  -0.1077214  -0.6946513  -0.3039560
  -0.6984615  -0.2068042   0.0950876  -0.0101359   0.1420730  -0.2293454
  -0.7742024   1.1893029   0.1933123  -0.4412617   0.4734139   0.1939072
  -0.1094788  -0.1235457   0.1075633   0.2314377  -0.9782421   1.2968336
   0.7503518  -0.4033789  -0.9013154  -0.1682567  -0.1146752  -0.1955319
  -0.0701001   0.0678180   0.1756319  -0.3111695  -0.6692135  -0.8307997
  -0.0608264  -0.0586748   0.1049832   0.0475323   0.0233105   0.0998829
  -0.0939486  -0.6237984   0.1261846   0.1948548   0.3526371  -0.4008114
  -0.1854188   0.1116196  -0.2214320   0.6819084  -0.8329113   1.1774584
   0.0757539   0.0624723  -0.0683009  -0.0386202  -0.0818036   0.3045421
  -0.2535682  -0.8822118   0.8788201  -0.2066755  -0.0683585  -0.0225891
  -0.9184824   0.6236103   0.7444038   0.2788428  -0.5225093  -0.1534641
  -0.1274465   0.1100561   0.2055932   0.0874567  -0.3030454   0.7902601
  -0.1178829   0.0881485   0.2630471   0.0348457   0.1811716  -0.1275890
   0.1993212  -0.2986811   0.2083654  -0.4379499  -0.9093295  -0.2500698
   0.1218097   0.0841397   0.2480227   0.2490543   0.4441145   0.9520359
   0.5483126  -0.0297220   0.8400623  -0.2071852   0.0012547   0.1688523
  -0.6736658   0.5643520  -0.0932088   0.2124316  -0.4770425   0.4128537
  -0.1788775   0.0470326  -0.0732225  -0.5242692  -0.6081376  -0.7600678
  -0.0631635   0.1059179   0.2531398  -0.2924878   0.1501279  -0.1983973
  -0.3897647  -0.0911226   0.1535564   0.6439544   0.3164579  -0.3251914
  -0.0185452   0.3495705   0.1513867  -0.1820692  -0.2704186   0.2068888
   0.3905438   0.3365205   0.4008736   0.3407861   0.2941885   0.2165088
   0.2656533   0.4250802   0.3291328   1.5649495   0.2738583   0.3585979
  -0.0529782  -0.2486459   0.0222780   0.3078696  -0.0911739   0.9067785
  -0.3474673   0.9400665   0.4882516  -0.2069735   0.0139208  -0.1523723
  -0.2223633  -0.0835702   0.1245185  -0.2342859  -0.6714451   0.8770145
  -0.0705479   0.1086813   0.0789372  -0.6447849   0.6918078   0.0553279
  -0.5095051  -0.7979433   0.2088087  -0.1297577  -0.0907934  -0.2041950
   0.5890091   0.7961660  -0.1307068  -0.8426577  -0.2382833   0.2354753
  -0.0542364  -0.0243911  -0.1638996   0.6018373   0.7878536  -1.1705625
   0.5507304  -0.5367378   0.5072877  -0.1283608  -0.0648841  -0.0364332
  -0.0123182   0.5462756  -0.2141830  -0.6781375  -0.2566373  -0.4220250
   0.1087867  -0.0645080   0.0163142   0.1638840  -0.0972184   1.6718419
  -0.4758581   0.1106422   0.1612097   0.0867416   0.1802536   0.2281494
   1.1964953   0.0363718   0.9574263  -0.0895135   0.1660017   0.3064697
  -0.3590482   0.2496119   0.0400577  -0.5135176   0.4795297   0.2669820
  -0.4304742  -0.1434936   0.2381949  -0.0009668   0.0971433   0.0875877
   0.0486626  -0.0096865   0.6419509  -0.0853592   0.0888737   0.1221247
   0.2924081   0.0646755   0.0039549   0.4403050  -0.0507844   0.0183607
   0.2024071   0.0603349   0.0069354  -0.0002097   0.2359093   0.4022326
  -0.0449963  -0.0647643   0.2360721  -0.6504958  -1.1518150  -0.7685025
   0.1710831   0.0525098   0.2987022  -0.8072697   0.3827666   0.4289444
   0.5985556  -0.4247631   0.1924851  -0.1923182   0.1324541   0.0398298
  -0.1861676  -0.5532073  -0.5666664  -0.2891120  -0.2591957  -0.5919103
   0.0969907   0.1223138  -0.0064206  -0.6384870   0.0427633   0.0431831
   0.0761023   0.1222462   0.1324067   0.0810249  -0.0103182  -0.2061419
   0.2783579  -0.3211202   0.0852217   0.3631191  -0.5125734   0.0387400
   0.1383991   0.0139637  -0.2439968   0.0079404  -0.1231850  -0.4325944
  -0.1591765  -0.2927419   0.3001729  -0.2755434   0.0412550  -0.1808810
  -0.0083681   1.3070873  -0.4294571   0.0257486   0.0587469  -0.0428391
  -0.0519410  -0.0697605   0.2604299  -0.6432670  -0.2176354  -1.1546425
  -0.0681208  -0.1863270   0.9471438  -0.1081867  -0.0618980   0.1479367
   0.1689241   0.3110614  -0.6753303   0.2704105   0.4967016   0.8067322
   0.1528920  -0.0793839  -0.0388728  -0.5759041  -1.1829736   0.4505585
   0.7684791   1.1708019  -0.5686153   0.0244635   0.0648413   0.1241686
  -0.1010471   1.0105356   0.6489841  -0.0931423   0.4371363  -0.6814144
  -0.4105360  -0.0384360   0.2912085  -0.0931733   0.1932255   0.5889460
   0.1143118  -0.3074651   0.6860687   0.1146187   0.1248608  -0.1833779
  -0.3280669  -0.8646018  -0.0313418   1.2417534  -0.0710139  -0.4038222
  -0.1263904   0.2537209  -0.1179696   0.7410188   0.6742988   0.4010015
   0.7377395   0.3160152   0.4204830  -0.0322898  -0.0539758  -0.2132417
   0.6307624  -0.6161540  -0.9131709   0.7324145  -0.8608339  -1.4050700
   0.0895999  -0.1736858   0.1255515   0.0770794  -0.1482639   0.1386226
   0.2948769   2.1818870  -0.1077506   0.2490267  -0.1144302   0.1060231
  -0.1535260  -0.2419301  -0.1894101   0.3273993  -0.0469394   0.2312704
   0.1412197   0.0360769   0.0655753  -0.3639240  -0.7708632   0.8130404
  -2.0130614   0.2165908   0.1587605  -0.0055929  -0.2037291   0.0188243
  -0.3022750   0.0120245   0.1021582   0.1389279   0.0688154  -0.1361253
   0.1921088   0.1576978  -0.3666778   0.5676573  -0.3206545  -1.7031297
  -0.0447758  -0.0588685  -0.4580321  -0.2030013  -0.0582780  -0.1395904
   0.4156993   0.3917275   0.7366815   0.1798576   0.3806496   0.1219067
  -0.0869109  -0.3265931   0.0615052   0.8045870   1.6969558   0.1562434
   0.3500779  -0.1360563   0.3367172  -0.1976133   0.0745578  -0.0951501
   0.5556387  -0.5663188  -0.5921919   0.1533873  -0.1937633  -0.6219839
   0.1366594  -0.0708991  -0.1584468   0.1540586  -0.2610655   0.5455600
   0.1705523  -0.1696611  -0.5346607  -0.1591815  -0.2567279  -0.1799933
  -1.1969986   1.0614352   0.7388211   1.4430847   0.6873912  -0.5171334
   0.2947639  -0.0419454  -0.4211595   0.4997453  -0.5037717  -0.0572566
   0.6097764  -0.0596900  -1.0824375  -0.4900959  -0.2559853  -0.0681621
  -0.4286086  -0.2694749   0.1969023  -0.0423136  -0.3812162   0.9984604
  -0.2014038  -0.3216070   0.0281621   0.1158289   0.4605762   0.2814253
   0.6603353   0.5778221   0.2793131  -0.0745574  -0.2471670   0.1989248
   0.2749621   0.3766317   0.0735394   0.3312430   0.4515372   0.2696512
  -0.1646268   0.1346866   0.2215535  -0.9730153   0.3053652  -0.3918786
  -1.0801328   0.8201553  -0.0359929   0.0158294  -0.2005147   0.0167638
  -0.0455471   0.4198032   0.1487802   0.0390518  -0.2971656  -0.0163399
  -0.2486285   0.2159913  -0.2683091  -0.8184189   0.8346133  -0.7518629
  -0.2161533   0.6042745   0.3160135  -0.2906697   0.0142561  -0.1810868
   0.2966606   0.8043874  -0.1203049   0.0622968   0.1300573  -0.2776182
  -0.1844622   0.1835557   0.1073947   0.3225286   0.1461584   0.0011709
  -0.4489105   0.4255906   0.1793209   0.0754701   0.1660731  -0.1033334
   0.2854108  -0.3145909  -0.1512533  -0.0092227   0.3238867  -0.7004825
  -0.0699117  -0.2476009   0.0102270  -0.4250782   0.2455299  -0.5668035
  -0.0666542   0.0733075   0.5304681   0.0209168  -0.2308700   0.0981013
   0.0331083   0.0550045   0.2920264   0.3424463   0.4956786   0.6363510
  -0.1100439  -0.0466992   0.1361488   0.2788050  -0.0068679  -1.0751410
   0.6362580  -0.0269946   0.4036327  -0.1149981  -0.1433559  -0.0955894
   0.2770700  -0.0863070  -2.6495149  -0.2451806   0.3245695   0.3211988
   0.0447283   0.2260363  -0.0662943   0.4437252  -0.0051304   0.0786044
  -1.2361542   0.2888045   0.2169137  -0.3902919  -0.0529355  -0.2120454
  -0.1452378   0.4997883  -0.2242953  -0.4066547  -0.1192753  -0.2104653
  -0.0490745  -0.1366765  -0.1365454  -0.0553990  -0.3029576  -0.0214431
  -0.1644346   0.1474504  -0.1520527   0.0640462  -0.0694816  -0.2096024
  -0.5705041  -0.4748176  -0.1262711   0.3959460   0.0178593   0.3924610
  -0.2273868   0.1934522  -0.1362803   0.3820872   0.7694222   0.5747973
   0.0862831  -0.1751770  -0.0379077   0.3227339   0.0407386   0.2231388
  -0.3798246  -0.0183533  -0.1830801  -0.2597137   0.3496952   1.2555599
  -0.0340817  -0.4178644  -0.1148389   0.7302085  -0.2260737  -0.3842985
   0.7236723  -0.0552222  -0.3475024   0.1145295   0.1158779  -0.1373068
   0.1623029  -0.2763165  -0.2354038   0.0717465   0.0986569   0.2496011
   0.0030088   0.1361747  -0.2153362   0.0884999   0.3864133   0.0479801
  -0.0408370  -0.0039948  -0.3019554   0.0900182   0.2003239  -0.0036749
   0.2771448   1.0608376   0.0933861   0.2534451  -0.2290448  -0.0291984
   0.0016502   0.0045705   0.1767175  -0.6950044   0.1119225   1.4631766
   0.6387253  -0.1306118  -0.1417019   0.1332727   0.1147421   0.1222653
   0.4648152   0.3226932  -0.2442732   0.2309521   1.7112692  -0.9938843
  -0.0875032   0.2460478   0.0744831   0.2840322   0.7207057  -0.2835739
  -0.0566278   0.4543324  -0.3749654  -0.0062834   0.2210885  -0.3366665
   1.4434839  -0.1477588  -0.3809413  -0.0085310   0.1442197  -0.4657184
  -0.0814638   0.0603729   0.2082392  -0.5089288  -0.6222120   0.6044810
   0.1855331   0.3506338  -0.1370889   0.0646927   0.1615900   0.1033980
  -0.1400402   0.0161169   0.2671264   0.1498561   0.0659732  -0.1532677
  -0.2771704  -0.1334064   0.1010556  -0.1881848  -0.3065253   0.3281238
  -0.3326933   0.5914349  -0.9360497  -0.1942052  -0.1611670  -0.6106736
  -0.9328703  -0.9019024  -0.7304269   1.1399916   0.4511931  -0.5610319
   0.0566166   0.1706112   0.1124029   0.3089654   0.3035445   0.0207338
  -0.7236890   0.5174941  -0.1653188  -0.4210107  -0.1398596   0.2968697
  -0.8366720  -0.3047768  -0.0454145  -0.6219510   0.2470287   0.0160811
  -0.0811483  -0.0524121   0.0080514   0.3593221  -0.4228001  -0.3640886
  -0.6764279   1.2400304  -0.1236538  -0.2718043   0.1673601   0.0161749
  -0.8269160  -0.0120374  -0.2142084   0.2314718   0.9607998  -0.0328418
   0.3535834   0.0873516   0.1592493  -0.5887050  -0.2964174   0.3240664
   0.3450550   0.4965348   0.1736186   0.0362547   0.0368715   0.2419494
  -0.5558741   0.4292447   0.1688039   0.1382029  -0.0316782   0.9527353
   0.0579501  -0.1844761  -0.0561936   0.1624364  -0.7451994   0.1101607
  -0.1030835   0.7184950  -0.2160224   0.1133450   0.2823816  -0.1811914
   0.4924712   0.3271024  -0.5682684  -0.2525839   0.3712710  -0.6481158
   0.0585007  -0.1538419   0.1936148  -0.3704353   0.3098544   0.6497257
  -0.6044944  -0.5519244   0.7055950   0.0282700  -0.0613313  -0.1075269
   1.1437713   0.1477075   0.5151257   0.5199866   0.6755689  -0.5178628
   0.1738415   0.0258651   0.1886585  -0.1548092  -0.0033996   0.4176740
   1.4257587   0.3931630  -0.6763333   0.0931330  -0.1389910   0.1351289
   0.1275795   0.0373441  -0.0145612   0.1192672  -0.2470566  -0.1771230
  -0.3676545   0.4088246   0.0980655   0.0609879   0.2233832  -0.2647289
  -0.5714742  -0.6780376   0.2390204   0.2529576   0.0465869   0.1658060
   0.1915273   0.4907246   0.3772332  -0.0550159   0.2725753  -0.5811722
   0.1149492  -0.0457279  -0.1526519   0.4596442   0.1232520  -0.8603860
   0.0365585  -0.4509776  -0.1723327  -0.1020547   0.5289401   0.2414413
  -0.8074316  -0.7678277   0.1816283   0.3915932  -0.7441838  -0.1344529
  -0.3084270   0.1466006  -0.0318224   0.1810198   0.5447780   0.3638539
  -0.5369455  -0.3989202  -1.1411857   0.3142595  -0.0424248   0.1129144
   0.0104893  -0.3686832  -0.2388902   0.6785455  -1.2250580  -0.6291643
   0.1356559  -0.1151980  -0.1276046   1.5092354  -0.3380060  -0.2761358
   0.0762408  -0.1042316  -0.1237259  -0.1071147  -0.3300015  -0.2532151
   0.4250866  -0.3682836  -0.9218182  -0.5302523   0.6765095  -0.8566825
   0.0381938   0.0994045   0.0689385   1.1029038  -0.3463062   0.3168434
  -0.6659703  -0.2388941   0.2062164   0.1694076   0.0574833   0.0450635
  -0.5819052  -0.6923091   0.2570376  -0.1597566  -0.1396308   0.0917008
  -0.1529528   0.1492636  -0.1366277   0.0430347  -0.7296284  -0.0600046
   1.1130504  -0.4556721  -0.5246665   0.2824951   0.3812230  -0.1731014
  -0.0880382  -0.1023735  -0.0651600   0.3293377  -0.6408944   0.1811414
   0.2775494   0.0800026   0.3664149  -0.4343883   0.3298060   0.0675260
   0.3111291   0.7081887  -0.0693870   0.1007075  -0.0736291  -0.1828656
   0.2823104  -0.0558861   0.0324005   0.1035733  -0.0526922  -0.1808959
   0.1765780  -0.1454293  -0.2717920  -1.0720811  -0.2388678   0.2613930
  -0.0070481   0.4551531  -1.3490520   0.1160910  -0.2858170   0.0744428
   0.3776536   0.5400844   0.4337128   0.2189395  -1.0017180   0.3419137
  -0.3563756  -0.0985812   0.1706309  -0.6365110   1.1466274  -0.0740074
  -0.0176656  -0.5439517  -0.3618281  -0.0760023  -0.2808741  -0.3572140
   0.4269168  -0.0142946  -0.1804929   0.0296835   0.3564888   0.3586592
  -0.1887529  -0.4466342  -0.0074293   0.0138499  -0.4776563  -0.0358200
  -0.2557173  -0.4430015  -0.0347225  -0.2112411   0.2466325  -0.3360896
   0.1819234  -0.0494743   0.5707344   0.8403482  -0.2390338  -0.2011280
  -0.0427041   0.2185638   0.0002254   0.7096626  -0.1697594  -0.1763776
   0.5409644  -0.3725240  -0.1951483   0.0497615  -0.0972219   0.0336916
   0.8657633  -1.1567745  -0.1647971  -0.1944826   0.3641950  -0.0698621
  -0.0519639   0.0784809  -0.0562720   0.1630157   0.6162140  -0.6484742
  -0.0926553   0.2038803  -0.0342773   0.0457296  -0.0845645   0.0733838
   0.8680844  -1.4541723  -0.1588099  -0.3492594  -0.6038056   0.3189908
   0.1784635  -0.0053269  -0.1007354  -0.0644680   0.2475662  -0.3199837
   0.3051555  -0.2390099  -0.3427845  -0.3838598   0.0162923   0.1563839
  -0.3544150   0.9643760   0.8815528   0.0564128   0.1874400  -0.3773923
  -0.2231008   0.1793948   0.1269798   0.3767487   0.0400067   0.6269857
  -0.1573053   0.8118408  -0.0999215  -0.2868117   0.1139271   0.0912214
   0.1428439  -0.0951454  -0.0256541  -0.8810305  -0.1237709  -0.1736700
  -0.2517070   0.1634764  -0.1075035  -0.4245302  -0.2167705   0.2024240
  -0.5737065  -0.5258041   0.4683981  -0.0833312  -0.0893395  -0.2314769
  -0.3260076  -0.6308277  -0.5258633   0.7710565  -0.5732563   0.1277807
   0.3847114  -0.0720540   0.0799491   0.9525593  -0.1981544   0.2106961
  -0.1178306  -0.5614111  -0.1314583  -0.2133376  -0.0383025   0.1875759
   0.1692261   0.1964557  -0.3436305  -0.5971584  -1.2110420   0.0200134
  -0.1426429  -0.1660929  -0.0391243  -0.5250021  -0.3519735   1.1803830
  -0.1108581   0.9421535   1.4374600   0.1420082  -0.0422241   0.1666831
  -1.2777471  -0.6500602   0.7476840  -0.0936432   0.0539745   0.0022770
  -0.2804981  -0.1398256  -0.2583256   0.8794768  -0.1340525   0.1056701
   0.2000735   0.1843572  -0.2841390  -0.1175371  -0.1413421   0.0375810
   0.0523993   0.1173100   0.3857841  -0.4795213   1.1842788   0.6064416
   0.2229741  -0.2935155  -0.2163021   0.5788475   0.0519605   0.0862073
  -0.4648643  -0.0835041   0.2398739  -0.2293450  -0.1622588   0.0547266
  -0.7244157  -0.3733204   0.6217321   1.1529152  -0.4306987  -0.1366365
   0.0310677   0.3994845   0.0829889   0.2485770   0.4845445   0.0452345
   0.8668782   0.6290734   1.0917313   0.1575878  -0.1051682  -0.0134103
   0.5789894  -0.1448917   0.7378578  -0.2823543  -0.2077955  -1.2402314
   0.3073128  -0.0500703  -0.2370769  -0.4332295  -0.0245146  -0.7088335
  -0.3656196   1.6658117   0.2983551   0.1246703   0.1881292  -0.3055559
   0.1211485   0.6513633   0.1451269   0.5807612  -0.1401280  -0.1784377
  -0.0171029  -0.1993998  -0.1394203  -0.1231771  -0.3031604   0.2146266
   0.2408331  -0.2936160  -0.0958056  -0.0082227   0.0676410  -0.0861729
   0.1074813  -0.3881565   0.4713891  -0.7633851   0.0721017  -0.6781956
  -0.0447659  -0.0686126  -0.2073977  -0.3556789   0.5465769   0.4165572
  -0.4350777  -0.4129239  -0.7514092   0.1491939  -0.2452640   0.0067694
  -0.9882749  -0.0232631  -1.0145407   0.2165443  -0.5481390   0.4488060
  -0.1109548  -0.2346274   0.2110063  -0.5737328  -0.1242490   0.1721990
   0.1770378  -0.0638829   0.2591747  -0.2295699   0.0843583  -0.1404063
  -0.4695371   0.3207230  -0.1151691   0.6233181  -0.9208284  -0.1290081
  -0.0446081   0.2264726  -0.0105816   0.4002311  -0.4957213  -0.3295177
  -0.3835141   0.0639952  -0.3922646   0.0363453   0.1562733   0.0353383
   1.3339113   0.4358766  -0.9650483  -1.3739124   1.1489669  -0.7715541
  -0.0792515  -0.3272185   0.0096342  -0.3713265   0.0230044   0.4828932
  -0.4390245  -0.1979206   0.5220138  -0.0581114  -0.0302007   0.1269564
  -0.4199816  -0.4882808  -0.5285971   0.0357196  -0.3762208  -0.6261777
  -0.0008380   0.1280024   0.0301205  -0.4796849  -0.6042387   0.8138230
  -0.7825677  -0.1414032  -0.3230227   0.0702010  -0.2339916   0.0259639
   1.2354183  -0.3710303   0.5274459  -0.4445126  -0.2513176  -0.2343264
   0.0308422  -0.1372328  -0.2234684  -0.0859363  -0.0015368   0.0081360
   0.3438869   0.1577585   0.4569345  -0.3750720  -0.2552056   0.0940871
   0.9597111   0.6984396   0.3006899   0.8145558  -0.0373216  -0.1781809
  -0.1227987  -0.1668460   0.3721140  -0.3708179   0.2269581   0.1553277
  -0.4624865  -0.3934858   0.6796715  -0.3018395   0.1381889   0.0712879
  -0.6740459   1.2791636   0.6401249   0.4895674  -0.3494628   1.1519038
  -0.1209286   0.3751404   0.1327505  -0.1699644  -0.5232673  -0.1360498
   0.0518035   0.5231374  -0.4670667   0.0996281  -0.1237133   0.1437949
  -0.0606053  -0.4226721   0.8965137  -0.7203116  -0.5573293  -0.1608225
  -0.0263605  -0.0587003  -0.0735037   0.0607994  -0.1636168  -0.1144237
   0.0649520  -0.0971958  -0.1026174   0.1399807  -0.0439386  -0.0214745
  -0.0806492  -0.1722406  -0.0774932   0.2077904   0.0259729  -0.0147404
  -0.0897897   0.2276245   0.0157605  -0.2830768   0.4915920   0.0178748
  -0.3817959  -0.2124007  -0.1198588  -0.1340219  -0.1167134  -0.0263243
  -0.4826886   0.0913672  -0.4108175  -0.3512682  -0.6211749  -0.1100487
  -0.0048148  -0.2621695  -0.4367713   0.3991471   0.0404093   0.0179511
   0.2824918  -0.0976431  -0.1029658   0.0986761   0.1119380  -0.1641921
   0.8502508   0.2499180   2.2040678  -0.2837076   0.4444482  -0.3293641
  -0.2973913   0.2795651  -0.0077168  -1.1424513  -0.3747019  -0.6889033
  -0.2585245  -0.7222269   0.3637601   0.0736198  -0.1439983   0.0672436
  -0.9718817  -0.0214221   0.2138492  -0.0573081  -0.5006400  -0.4411768
   0.0033219   0.1687348  -0.0367563   0.0586037   0.2153657  -0.3265980
  -0.5860639   0.6169852   1.8793540  -0.1455307  -0.0275998   0.0322515
   0.1254216  -0.4329638  -0.0771604   0.5535205  -0.7124934  -0.0420082
   0.2778659   0.0382424   0.0183022   0.2135167  -1.1758940   1.0352698
   0.2191550  -0.4946204  -0.2775150  -0.2073790   0.1925226   0.2209680
   0.1328385  -0.2594005   0.0077003  -0.7700069   0.4220508   2.2209693
  -0.1278178   0.0357655  -0.0187472  -0.0232581   0.1151037   0.0241181
   0.6310532   0.5347727   0.2778594   0.0719255  -0.2120029  -0.0200446
   0.2643257  -0.5124106  -0.1577694  -0.1441543  -0.0885613  -0.3192249
  -0.0752735   0.0436443   0.4708480  -0.0130757   1.0803130  -0.0132895
  -1.2395378   0.0385494   0.3556321  -0.1990903  -0.0030083  -0.2086124
  -0.6611758   0.3468560   0.6751789   0.0424515   0.4134532   0.0564160
   0.1094823   0.0481191  -0.2027463   0.1427823  -0.1485734  -0.8700861
   0.6187116  -0.2429953   0.0340256  -0.2996192   0.1243634   0.1668078
   0.4340714  -0.1136222  -1.5763279  -0.3601838   0.5713137   0.1876246
  -0.0297378   0.0265385   0.0986916   0.1419886  -0.5087490  -1.0623970
  -1.1776952  -0.3411313   0.6096736   0.0780521   0.0860942   0.2250319
   0.0399672   0.3082457   0.5577951   0.0881441   0.1054252   0.1335390
   0.3490447  -0.2059543  -0.4084793   0.7741074   0.4944871   0.1025447
   0.2228347   0.2219087  -0.1603409   0.1451547   0.0530046   0.2343822
  -0.0438253  -0.7349687   0.0263475   1.1027462  -0.3805613   0.4604097
   0.0330851   0.0469448   0.2033704   0.0747768   0.2750434   0.2541877
   1.4988531  -0.1992277  -1.3335443  -0.1104081  -0.0423980   0.2460251
  -0.6739583  -0.6167758   0.7844884   1.0056991  -0.2961048   0.0594425
  -0.0927014   0.2710332   0.1218534  -1.1381429   0.2456269   0.3168345
   1.5655534   0.7201729  -0.5080754   0.4974305   0.2615862   0.0716807
   0.5224943   0.3479535  -0.0951133   0.1329319   0.4237131  -0.0006839
  -0.0067413  -0.1181620   0.3190762  -0.1185782   0.1904358   0.2994088
   1.3256728   0.0984932  -0.1650716   0.1802825  -0.1403932   0.1119023
   0.1741212  -0.7002086   0.4358121  -0.8252232   0.1908715   0.8838682
   0.0126205  -0.1581160  -0.0310352  -0.2985918  -0.3494860   0.1088089
   0.7640150   0.4059765   0.1893872   0.0754364   0.1648925  -0.0419966
  -0.2183409  -0.6010285   0.5273376  -0.1165845   0.1394079  -0.5013314
   0.2617071  -0.1968379  -0.1005056  -0.5391430   0.6169582   0.0367484
  -0.6505806  -0.2084129   1.0632138  -0.0636046   0.1694739   0.2762116
  -0.4647536   0.2121615   0.4531640  -0.1660997   0.1211135  -0.0953461
  -0.3060449  -0.0428090  -0.0965540   0.7090383  -0.3113136   0.6401708
  -1.1325279   0.1251143   0.9168105   0.0890334  -0.1969484  -0.2182761
   0.0719108   0.3419220   0.6903550   0.8825812  -0.4592006   0.7976394
   0.0049966   0.0542814   0.1186079   0.3027927   0.2009889  -0.3882881
   1.0639020  -0.5348423  -1.1234948   0.1101395   0.1400947  -0.0158385
   0.2526885   0.1018201   0.0379595  -0.0940391   0.6613211   0.2438715
   0.0301965   0.1283169   0.4145075  -0.1686488   1.1271829  -0.5047638
  -0.4348666   0.8348483  -0.1983637  -0.2485237  -0.0462920  -0.0555529
  -0.3344733  -0.3783547   0.4435249  -0.1058801   0.2545658  -0.4466464
   0.3105024  -0.0087479   0.1107400   0.2440233   0.1434023  -0.2352822
   0.8379619   0.5305740   0.3605576   0.0189293   0.0357753   0.0186007
   0.0167295   0.1017686  -0.2998812   0.1584860  -0.5194662   0.4129376
  -0.1476620   0.0732902  -0.1137498   0.5420563   0.9427088  -0.1691971
  -1.2636135  -0.5954292  -0.8436192  -0.1359213   0.0464570   0.1086219
  -0.5049092  -0.0115455  -0.1262131  -0.3238189  -0.1471419   0.2241258
   0.2391178   0.0272031   0.0971020   0.2191457   0.1901806   0.2168932
  -0.6826761   0.1916090   0.2806204  -0.1319814  -0.1369772  -0.2148975
  -0.6077516   0.6571032   0.1032465   0.8469383  -1.3101673   0.3419724
   0.1779341   0.1298550   0.0119412  -0.2533199   0.3106020   0.7353154
   0.0136193  -0.6534552  -0.2238351   0.0723704   0.2907185  -0.2082519
  -0.0366554   0.2098453  -0.0446065  -0.1064414   0.3715039  -0.4089860
  -0.1747992  -0.0336980  -0.2091425  -0.3794707   0.6858192   0.3282057
  -0.2207960  -0.3693325  -0.5562961  -0.1365507   0.1542525   0.1131384
  -0.4361884  -0.6959250  -0.7083949   1.0945620   0.2288059   0.6325095
   0.1118187  -0.2579908  -0.1231757  -0.2302966  -0.4040585  -0.0910735
  -0.0370725  -0.7397164   0.2648524  -0.3854470  -0.0515115  -0.0049318
   0.6022597   0.6699681   0.8864228  -0.4662958  -1.0408819  -0.3708527
  -0.2222004   0.1363845   0.0870657   0.3030553   1.3455289  -0.1122462
  -1.3550685  -0.3497961  -0.9030509   0.0582352   0.1771298   0.1526712
  -0.6752186   0.3462093  -0.0505747  -0.1456637  -0.1650775  -0.1878812
  -0.0478716   0.3319133   0.0969758   0.6984624   0.4473920   0.4275130
  -0.3568249   0.2859793  -0.0397300   0.1597577  -0.1405247  -0.3116825
   0.4677944   0.3367013   0.1225745   1.0524921  -1.1391871  -0.2753445
  -0.4117626   0.3659779  -0.2978144   0.2889608   0.5508971   0.3839782
  -0.9432334   0.4481869  -0.1029432   0.0166780   0.0807779  -0.1700773
   0.2290091   0.4202839   0.2224233  -1.0624358   0.0620550  -0.6173122
  -0.2362807   0.0038481  -0.0644229  -0.7137260  -0.0715956  -0.2442083
   0.1791501  -0.6238163  -0.5395917  -0.2789851   0.0490528   0.1081275
  -0.2702751  -0.3342279   0.2793186  -0.3213488   0.1961829   0.0363053
  -0.0175558   0.2110651  -0.1843949  -0.4290115   0.6741526  -0.1517203
  -0.0513409   0.8137032   0.1822721   0.0415606  -0.3144022  -0.1663115
  -0.2567384  -0.8119219   0.0018801  -1.5659309   0.2178921  -0.3003000
   0.1291820  -0.3468210  -0.1764898   0.8333065   0.2196626   0.2594116
   0.6018992  -0.1405629   0.5400767   0.2284257  -0.1297023  -0.1568372
   0.4943364  -1.4337957  -0.0358602  -0.2928851  -0.3415024  -0.1881466
   0.2122563  -0.0130452   0.1641329  -0.4934627  -0.0340534   0.2954184
  -0.0787776   0.0310672   0.2988218   0.1277055   0.0867328   0.3168695
   0.2451236  -0.7973165   0.9535826  -0.0230423   0.6974801  -0.4258043
   0.0659363  -0.0617676  -0.1344408   0.4722796   0.0033712  -0.4353319
  -0.1340167  -0.3152733  -0.1965317   0.0613147   0.0750054   0.0776870
   0.1982030  -0.6906433  -0.1114909  -0.7015630   0.2042822  -1.2973272
   0.2224895   0.0841249   0.1861968  -0.0385465  -0.2745138   1.2010115
   0.2281243   0.4447137   0.9738983   0.0989513  -0.3474897  -0.1540031
  -0.2934606  -0.0079595  -0.3478923  -0.4164107   0.6569928  -0.4051184
  -0.0814450   0.0198805   0.2082323   0.2783464   0.6043028  -0.2938830
  -0.5070119  -0.3566690   0.0202505  -0.0169021  -0.2105071  -0.1123566
   0.4959019  -0.4784928  -0.3294631  -0.5876224  -1.1070094   0.0164770
  -0.1886126   0.3831536   0.1421765  -0.5872294   0.4079004  -0.1051219
   0.2779262   0.2771155   0.3432730   0.4294812  -0.0937389   0.1586869
  -1.0013042   1.6088069   0.7011646   1.0624119  -0.4957763   0.8524852
   0.0289879  -0.0551802   0.0741080  -0.4968389   0.1036904  -0.0075751
  -0.1068327   0.3586402  -0.4983976   0.0026116   0.0045419  -0.1754364
  -0.6732676   0.2825111   0.9451411  -0.5696784   1.5383435  -0.4158571
  -0.2999766  -0.2212249   0.2664263   0.6360582   0.3078894   0.0941378
  -1.4414256   0.2108188  -0.2737763  -0.1211340  -0.0254413  -0.1052093
   0.0328120   0.0282629  -0.7006884  -0.2538682  -0.0727150   0.5508293
   0.0303398   0.0769279  -0.0238010  -0.3903846   0.2167175  -0.1789180
  -0.0723511  -0.2793531   0.3250151  -0.0619902   0.5274263   0.4307324
  -0.0001682  -0.4623046   1.1056856  -0.0488266  -0.6253100   0.8991606
  -0.2035751  -0.0856022   0.0075196  -0.2515760   0.4445527   0.1526919
  -0.2059858   0.1873246   0.2854909   0.0866209  -0.0430056   0.3822619
   0.5843497  -0.0260710   0.0755742  -0.2408372  -0.1625810   1.0763750
  -0.3305126  -0.0729412   0.0071276  -0.6883483  -1.5320020   0.4561366
  -0.2093343  -0.2011451  -0.3531789   0.0910218   0.0881966  -0.0810603
  -1.2126437  -0.6363732  -1.1597718  -0.7297022  -0.1417172  -0.5367822
  -0.3927870  -0.0476398  -0.2125299  -0.5080758  -0.0917426  -0.2927727
   0.2281007  -0.1828187   0.0935818  -0.1660723   0.1964482  -0.3928040
  -0.2237324   0.7283873   0.9240096   0.5813053   0.3948322  -0.5680592
  -0.1308474  -0.0984379   0.0589741  -0.7822231   0.2048634  -0.5248284
   0.0798354  -0.6298232  -0.7319440   0.1908948   0.1531235  -0.0696091
   0.8650291  -0.0316266   0.0231247  -0.6006170   1.5277273  -0.1132461
   0.0015544  -0.0755885  -0.1903265  -0.5454824  -0.4328567   1.1063098
  -0.1539572  -0.1596937   0.1201797  -0.1962940   0.1931861   0.0508536
   0.2856876  -0.2770804   0.3795809  -0.3667972   0.3045410  -0.3554664
   0.1425289   0.3869168  -0.2261320   0.2602721   0.4265567  -0.2463122
  -0.9298497   2.1305564  -0.1504762   0.2592400  -0.2420502  -0.1560354
  -0.1739493   0.0829811   0.6475236   0.2035851  -0.9625310   0.2574129
  -0.1150891   0.4246676  -0.3439801   0.1282192  -0.4337117  -0.7296598
   0.6397512   1.0017118   0.0452506  -0.0859586   0.1539465   0.0337380
   0.2629505  -0.4481080  -0.2033608  -0.2649474   0.5512701   0.3713763
   0.2788830  -0.4022117   0.0695607   0.6190806   0.1551942   0.6684589
   0.3430045  -0.2277140   0.2115909   0.1379163   0.3537942   0.0476002
  -0.6643996  -0.0594800   0.9230288  -0.8497444   0.3406379   0.6832989
   0.1412840  -0.1389837   0.2383913   0.3630852   0.1558100  -0.0729850
  -0.1563852  -0.1273947   0.0049239   0.0297709   0.2006279   0.0076271
  -0.2749256  -0.3654491   0.3052461   0.6227127   0.9830592  -0.4644627
   0.3140542   0.1274703  -0.2310651  -0.0284848   0.3262431   0.1401990
   0.1654940   0.1712337  -0.0122697  -0.3240298  -0.1849126  -0.0968560
  -0.1922383  -0.0891702  -0.2703765   1.5301056  -0.0103322   0.6940720
   0.0092444  -0.1159860  -0.1770478   0.4673503  -0.5100290   0.5097734
   0.7812695   0.0598525  -0.0906309   0.0415250   0.1325752  -0.1220712
  -0.6930708  -0.5878233   0.3630407   0.4761762   0.5550402   0.2988581
  -0.0364245  -0.0796405  -0.0605762  -0.1580395   0.2972495   0.2960406
  -0.4950063   0.7678713   0.8154680  -0.0109793   0.3537375   0.0388357
  -0.8786828   0.2688043   0.5322616  -0.7832065   0.7893126  -0.3159982
   0.2708757   0.1963726   0.1306803  -0.4234051  -0.2665326   0.2774904
  -0.0474045   0.5660978   0.5823902   0.0083144  -0.2728737  -0.0753603
   1.3298028   0.0109445   0.1118801   0.2826887   0.1821211  -0.4939206
   0.4198683   0.0472826   0.2504841   0.2568634  -0.0774254   0.3365533
   0.5786546   0.3524319   0.7085810   0.1364476   0.1325388   0.1996831
  -1.9464965   0.7401989   0.6768405   0.0064816  -1.9245757  -0.1810503
  -0.0786792   0.0379117  -0.0641209   0.1512013   0.1004037   0.0504566
  -0.3737515   0.0836293  -0.0165669   0.1529520   0.0979800  -0.2314910
   0.4738874  -0.3733952  -0.3140737   1.1382809   0.4772132  -0.8295330
  -0.1982490   0.0814794  -0.0928731   0.4502484   0.0752801   0.2952197
  -0.3532661   0.5253800   0.0915289   0.2327146   0.0690548  -0.1021110
   0.0946028   0.4294156  -0.0790414   0.1272638  -0.2188214   0.3764501
   0.0674680   0.2364075  -0.0907941   0.4538540   0.2468356  -0.1486904
   0.1630053   0.0397277  -0.3699833   0.4046778  -0.3007242  -0.1287326
   0.8247960  -0.3144785   0.3339276   0.4972700  -0.3275355   0.2026490
  -0.0557604  -0.1124077   0.1234684  -0.1794393  -0.7958205  -0.4868753
   0.2971005   0.2426848  -0.4590511   0.1478542  -0.1805251   0.1721003
   0.0517914  -0.3034105  -0.0648463   0.1295941   0.2062945  -0.2126818
   0.0054989  -0.1196849   0.2320696   0.0925921  -0.0123456  -0.1313285
   0.5670393  -0.4388831   0.5235003  -0.2867916   0.0058437   0.2180108
  -0.2338672  -0.0733444   0.2478251   0.8011663  -1.6740458   0.7497445
   0.1123614   0.4170934   0.2160556  -0.5385207   0.6494793  -1.2901794
  -0.5253842  -1.2729274   0.1989037   0.1422582   0.0024134   0.2491899
   0.4519828  -0.1329018  -0.0235991  -1.1995749   0.3140378   0.1929249
   0.2533199  -0.0046025  -0.3278546   0.7767142   0.1880692  -0.9807937
   0.1184017   0.1551711   1.0146566  -0.0248323   0.0479406  -0.1574399
   0.0786110   0.1803165   0.2301340  -0.1119303  -0.1344321   0.7325179
   0.0410495   0.2107042  -0.1594261  -0.1854373   0.2817840  -0.7064791
   0.6253956   0.6810453   0.3224485   0.2185838  -0.2060380  -0.0245149
  -0.5827930  -1.4328152  -0.2485360  -0.3733476  -0.0860626   0.1213338
   0.2350087   0.0894837   0.1111719  -0.0856669  -0.4619930  -0.1668392
   0.2247563   0.0512596  -0.4251236   0.0744337   0.0612392  -0.1970857
  -0.7482976  -0.5090607  -0.0766362   0.5272035  -1.0771986  -0.4439496
   0.1914739  -0.1822123  -0.3127165   0.3192005   0.0908508  -0.1684138
   0.6699136   0.0027758   0.3919962  -0.3510838   0.2633744   0.3735937
  -0.6328555  -0.5333428  -0.2936612  -0.3968003   0.0300853   0.7554450
  -0.0216807   0.2709651   0.1080483   0.0950432   0.1576795  -0.0029017
   0.2129093  -0.2315770  -0.3573847  -0.1353527  -0.1633357  -0.0672383
  -0.1741522  -0.0539112  -0.3006106   0.2837438   0.1077469   0.1076015
  -0.2308476   0.0708782  -0.0018691  -1.0462643   0.1210471   0.2060128
  -0.2679414   0.1867436  -0.5124598   0.4126672  -0.0975558  -0.2947037
   0.2320343   0.2298202  -0.6158169   0.4221219  -0.5283980  -0.7060439
   0.0384371  -0.2652233  -0.2064186  -0.1148295  -0.2909558  -0.4886377
  -0.0932303  -0.3759955   0.0306472  -0.1168580  -0.3526416   0.1102402
  -0.0017197   0.2680102  -0.1382903   0.3626990  -0.6744459   0.7895740
   0.0227712  -0.1096589  -0.0744136  -0.4112249  -0.4330939   0.1595870
  -0.4426309   0.1394662  -0.3824404  -0.0333082   0.0843459  -0.0025298
  -0.7026593   0.2273186  -0.0965795  -0.0128573  -0.4269269  -0.8923070
   0.1040846  -0.0974713  -0.2557078   0.7946319  -0.5845793  -0.1193937
  -1.8158246  -0.3593605  -0.0894027   0.0975405  -0.0458954  -0.1798627
   0.7022243  -0.0958554   0.8929090   0.5089945  -0.6134142  -1.3235245
  -0.2325926   0.1872552   0.2184618  -0.5716700  -0.3313148  -0.2708879
   0.2481365   0.3481269   1.2704934   0.0245675   0.2927439   0.0218064
  -0.9389771  -0.0312530   0.7756546   0.4361474   0.4972034  -0.8073232
   0.1170584   0.0238638  -0.0069478  -0.2722580   0.2997633  -0.1420785
  -0.8027388   0.7325948  -0.2122783  -0.0949488   0.0736972   0.3691553
  -0.3341912   0.3118382   0.3328947   0.3595459   0.0145162   0.5932057
  -0.0584431   0.1678717  -0.0871351   0.1186527  -0.0208468  -0.6987724
   0.9468492  -0.3417954  -0.3686279  -0.1977329   0.2006772  -0.0302247
   0.1377675   1.0647986  -0.8155552  -0.4956316  -0.7800295   0.9232433
  -0.1479257  -0.0116089  -0.0016703   0.3880639   0.7123924  -0.6877173
  -0.8158200  -0.8978147   0.8184436  -0.1422478  -0.3070551   0.2424755
  -0.6538153  -0.4815962   0.1179942  -0.0181547   0.1437668   0.4746721
  -0.2130334   0.2104142   0.1518164   0.4312683   0.0763549   0.9090772
  -0.0715033   0.3324831   0.1956680   0.5024795   0.0881004  -0.2856359
  -0.0517242   0.0862110  -0.1168512   0.6381261   0.1065128   0.0446245
  -0.0873333   0.0314495   0.1185688  -0.6000167  -1.0503442  -0.2483339
   1.1467769  -0.3455023   0.0567779  -0.2867551  -0.0990264   0.1637797
  -0.0565390  -0.8862654   0.0763000   0.6039445   0.1813616   0.4028682
   0.0683821   0.0943022   0.0953013   0.0512870  -0.5864323  -0.8678773
  -0.4711964  -0.2915213  -0.5707759  -0.1395270   0.3899252   0.0867717
  -0.0935680   0.8165855   0.3739835   0.2926688   0.3888555   1.0229274
   0.0498792   0.0816567   0.1586620   0.2560519   0.1124573  -0.0784911
   0.3031761   0.1118550   0.3150023  -0.3325123   0.0556254   0.0232126
  -1.1642548   0.1418771   0.4250707  -0.2387734   0.6080048  -0.0295507
   0.0662055   0.0211279   0.0603172  -0.4045831  -0.0304538  -0.5088978
   0.1772671  -0.0912319   0.4959356  -0.1249375   0.1432602   0.1329230
  -0.0350201  -0.2369585   0.3857312  -0.5760807   1.5642888  -0.5904174
   0.1700125  -0.1620254  -0.1246797  -1.2679276  -0.6584091  -0.2459822
  -0.5175762   2.0226981   0.6146632   0.0263871  -0.0650198   0.2850752
   0.1242895   0.1986911   0.2989443   0.1375009   0.2021856   0.1107268
   0.1256475   0.1114364   0.0599606   1.0357575  -0.8660247  -0.5847351
  -0.3424004   0.4510867   0.2042409   0.2112319  -0.0449443  -0.2599191
  -0.2866675   0.2076443  -0.1574669   0.0497362   0.2527085   0.2191849
   0.0884611   0.0730875  -0.1417921   0.3819222   0.4458367   1.3196719
   0.8767183   0.6796506   0.7631240   0.0130848  -0.2596321  -0.2031757
  -0.3817400   0.4627523  -1.6617791   0.4523176  -1.5169635   1.8884043
   0.2294424   0.4198226  -0.0388981   0.1072611   0.6051483  -0.0861388
   0.2433430  -0.1493894   0.0679220  -0.1477151   0.4535756  -0.0194575
   0.9691976   0.0438566   0.8102673  -0.5221067   1.3444859   0.4432682
  -0.1425425  -0.0828179  -0.0800711   0.3250721  -0.1637479  -0.3694487
   0.5176234  -0.1337304  -0.6469134   0.2308223   0.1982323   0.3034252
   0.5451815   1.4724272   0.1814371   0.9153507   0.3311749  -0.7860504
   0.1122061  -0.2014029  -0.2796739   0.2369676   0.2812219  -0.0389712
   0.2957482  -1.1224582  -1.4877892   0.0032269   0.0738224   0.1911912
   0.4550736  -0.3301938   0.6287070   0.3095473  -0.1125929   0.3780329
   0.0971654   0.0919337   0.2010213  -0.2015882   1.7552800   0.7941742
  -0.1935185  -0.2782407  -0.1826419   0.0451318  -0.0015670   0.3357900
   0.9388912   0.2416121   0.7873364  -0.2406242   0.2047088   1.2876300
  -0.1362780   0.0813882   0.1149667  -0.1676334  -0.6763796  -1.4716712
  -0.1228372  -0.4188304  -0.6343488   0.3202974   0.2029518   0.0191573
  -0.8058453   0.4661840  -0.2575336  -0.5102477  -0.3972231  -0.5863354
  -0.0831125   0.1190811   0.0539968   0.2452726   0.0436194   1.6512843
  -0.0828871   0.4791501  -0.3626951  -0.1986547  -0.0161466  -0.3109941
  -1.0536546   0.7521423  -0.5717579   0.1732090  -0.1003405  -0.3696748
  -0.2573546   0.2340392   0.0271192  -0.8819393   0.0821223  -0.4710528
  -0.6562376   0.9378841   0.7271904  -0.0589113  -0.1381900   0.1552521
  -0.1290506  -0.2725576  -0.1537659  -0.5818287   0.6693778  -0.2271581
   0.2273532   0.0747891  -0.0236598  -0.6559372  -0.0042241  -0.4500030
   0.4044551   0.4163949   0.3582894   0.2577428  -0.1750133  -0.2008971
  -0.0298292   0.1442152   0.0657429   0.7290145  -0.5938810  -0.4013253
   0.0354092  -0.1476421  -0.0709118  -0.8074353  -1.5179470  -0.7518756
   1.0292041   0.0343955   0.3282775   0.3611118  -0.1329689  -0.0089491
   0.3626565   0.0102220   0.0661555   0.9592896   0.5548206   1.1733168
   0.0005442   0.0384546  -0.1559741   0.8840882  -0.4194788   0.7270093
  -0.3878446   0.0456254  -0.0512516  -0.0644128   0.0097605   0.0227430
   0.2033464   0.3783291  -0.8782109  -0.8132903   0.5101448   0.3050768
  -0.0202874  -0.0747864   0.2862435  -0.7136891   0.1667335  -0.2938355
  -0.4233321   0.6715393  -0.9624693   0.1609313  -0.0346321   0.2499333
   0.2709077  -0.4059844   0.2337369   0.5221248  -0.0051009   0.1641452
   0.1550464  -0.2107489   0.1446378  -0.2420285  -0.2860087  -0.0302932
   1.2430843   0.3253728  -0.6871010  -0.2524452  -0.0170404   0.1824927
   0.1058366   0.0306094   0.2851329  -0.3300771  -0.3390371   0.1152439
  -0.4863065   0.0262914   0.3488241   0.2216115  -0.8891027   0.7848534
   0.0244909   0.5319563  -0.7557225  -0.0407235   0.0647144   0.0009050
  -1.5888602  -0.4821028   0.4712140   0.9063129  -1.3889558  -1.2223962
  -0.1913713   0.1691579   0.0608157  -0.1969218   0.5925388   0.5206678
   0.5127443  -0.2146536   0.0236134  -0.0439706  -0.1623039  -0.2235069
   1.8625023  -0.1190787   0.6597953   0.5048448  -0.7000143   0.0211641
  -0.1208858  -0.0586346  -0.2502694   0.3078563   1.0262936  -0.3294981
   0.5856654  -0.3139142   0.4889338   0.0850348  -0.0163809  -0.3120406
   0.0303400  -0.4908748  -1.0314715  -0.8083023   0.2599965  -0.4794145
   0.0040054  -0.3438776  -0.2688351  -0.3247470   0.2038534   0.2864832
   0.4571968  -0.8376659   0.5073233   0.0633247   0.1275436   0.1495296
   0.0257596   0.9809806  -0.6242887   0.0827095  -0.4891020   0.6713220
  -0.3098168   0.1558037  -0.0326506  -0.6126164   0.3206573   0.4758716
  -0.3481149   0.1739150   0.0343208  -0.2625486  -0.2714574  -0.1680030
  -0.7231554   0.0716717  -1.2790545  -1.3322675   0.1644763   0.4932983
   0.1508534  -0.0515461  -0.2685286  -0.2402354  -0.7679765   0.4224800
   0.2208446  -0.2968914   0.8482906  -0.1031903  -0.1272129   0.0988745
   0.1298976  -0.3641800  -0.5075630   0.7055288  -1.7959603   0.7392725
   0.1667901   0.0688239   0.1358216  -0.1294329  -0.2728473  -0.1648804
   0.2263205  -0.3375233   0.4700445  -0.2151154  -0.1118848  -0.1021960
  -0.1609460  -0.1583163  -0.3568197   0.4054715   0.4468515  -0.1411844
   0.1014792   0.0271097   0.0238115  -0.0391313  -0.4319663   0.0400549
   0.0676811   0.1270458   0.0432826   0.1081136   0.2085017  -0.2398181
   0.3544860   0.3278320  -0.6477052   0.2505798  -0.1547405  -0.0200436
   0.1778807  -0.2749147  -0.0592253   0.1846412   0.0971940   0.4184042
   0.4087704   0.6438670  -0.3177846   0.0003743   0.0475963   0.1817260
   0.2307026  -0.8581469   0.3335034  -0.1824466   1.4875404  -0.2212856
   0.1039497  -0.1333008  -0.0701349   0.7684021  -0.1419519  -0.4252793
   0.7919696  -0.4400252  -0.2142618   0.1818595   0.0159643   0.1019431
   0.4519372  -0.5610466   0.2656104   0.1231733   0.5845525   0.1151495
  -0.1962467   0.0869938  -0.2517914   0.2228804  -0.2504323   0.1994325
  -1.1602273   1.1349087  -0.2709700   0.3209406   0.0587545   0.0402562
   0.1343209   0.3712070   1.0794831   0.8198861  -0.2180713   0.1559578
   0.1196783   0.0614047  -0.1970721  -0.3313897  -0.9406053   0.0855475
   0.2795605   0.4385471  -0.3413483  -0.3199474   0.1626963   0.0136651
  -0.3165086   0.0567040  -0.1818298  -0.2568964   0.3149277   0.2075297
   0.1932805   0.0560479  -0.1765465   0.1315213   0.0310207   0.5668639
   1.4481624  -0.0733998  -0.4286265  -0.0991910   0.0722443  -0.1143173
   0.0805341  -1.2560113  -0.7706936   1.0957471  -0.4765258  -0.9009930
  -0.4548256   0.0779431  -0.4170500  -0.8285154   0.2643601  -0.2304594
   0.3850133  -0.2285965  -0.6424167   0.1382266  -0.0430169   0.0420590
   0.6509186  -1.2593476  -0.0835987   0.1841907   0.0736749  -0.1986408
   0.2266101   0.0284131   0.1409479  -0.1217592  -0.1798522  -0.2844032
   0.8426961  -0.3201801  -0.0234507  -0.2981644  -0.2530708   0.0107185
  -0.3917917   0.8368231  -1.2135418  -0.4542034   0.7867807  -0.1997143
  -0.2149315   0.0588076   0.1684981  -0.5741406   0.0989471   0.3993687
   0.3642905   0.4397651   0.1548938  -0.2581385  -0.0401258  -0.1997656
  -0.5154339   0.4011579   0.6043129  -0.1518042   1.0424282   0.6794032
  -0.0241408   0.1364777   0.0319059   0.6551322  -0.0082875   0.2276032
   1.7260517  -0.1265373   0.5706455  -0.2595798   0.1529770   0.2793596
  -0.8807314   0.0145095   0.0461432   0.2735397   0.8715429   1.0934919
   0.0711963   0.1549022   0.0592644   0.2076985   0.4851937  -0.6202242
  -0.0121783  -0.4136370   0.4688973  -0.1740742  -0.0415735   0.2356122
  -0.0963090   0.0331493   0.1429245  -0.1816204  -0.4158969   0.4353187
   0.0805331  -0.3109775  -0.1119168  -0.3475145  -0.5283473  -0.5358830
  -0.0904004  -0.4494627   0.2685505  -0.1370223   0.1354607  -0.1041349
   0.1217303   0.0665018  -0.1813759  -0.5042718   0.0436908   0.3878099
  -0.2098633   0.0531040   0.0649410  -1.6271106   0.4036186  -0.1243375
   1.0869993   0.0360476   0.4386721  -0.0027495   0.1039469  -0.1896698
   0.3440894   0.1895001   0.1108052  -0.0853307   0.3411100  -0.3566114
   0.0772761  -0.3254439  -0.4023288  -0.9269666  -0.9297883  -0.4050619
  -0.0358824   0.5181408  -1.2631283   0.1314287  -0.2376800  -0.1090141
  -0.5752003   0.7668351   0.9164181   0.2320030  -0.2677304  -0.0357182
  -0.1205354   0.2329039  -0.1020432  -0.3287290  -0.0667225   0.4963675
  -0.9930528  -0.2700028   0.1585930  -0.1373544  -0.1369425  -0.0431964
  -0.5733046  -0.0861138  -0.2971977  -0.9200559  -0.7554701  -0.0823394
   0.0849569   0.0212446  -0.0586024   1.3368483  -0.0488295  -1.2434449
  -0.6130693  -0.4162217   0.6398482  -0.1119092  -0.2739020  -0.2241940
   0.0001213  -0.0715524  -0.5459470   0.9885820  -0.7545071   0.3148743
   0.1429602   0.1008545   0.1995067   0.2643755   0.5402468  -0.0361883
   1.2307705  -0.1339583  -0.5794220   0.0935779   0.0185510  -0.2376378
  -1.0762787   1.1366461  -0.0584930  -0.6561907  -0.0223752  -0.0816359
  -0.0229458  -0.0844085   0.0638913  -0.4875415  -0.4959416  -0.4973383
   0.1428298  -0.0368667   0.1623734   0.1825374   0.6309050  -0.0933565
   0.3646927   0.2098032   0.5958508   0.1412829   0.7207342  -0.2297418
   0.1085590   0.0119256  -0.0243200   0.4915844  -0.1570622  -0.1091307
   0.4340418  -0.2144738  -0.1637583   0.1444811  -0.0153625  -0.1258361
  -0.1285114  -0.0571665  -0.5764559   0.3149075   1.0529308  -0.3148395
   0.3179118   0.3971900   0.1485143   0.1163715   0.6364640  -0.2350152
   0.5144380   0.1502898   0.5895692  -0.1917899  -0.0119902   0.0672080
  -0.0990943  -0.1872179  -0.3992695  -0.3214965  -0.4234676  -0.4475858
  -0.1835525  -0.1189564   0.0611619   0.2230560  -0.2325325  -0.3895182
   0.5891797  -0.9224255  -0.7284756  -0.1404941  -0.0325751  -0.1365228
  -0.1736500  -0.2163255  -0.1364620   0.1692939  -1.3995001   0.3564150
   0.1598474   0.2714155   0.0430235   0.4824664  -0.2794949   0.5406108
   0.0672007  -0.1723412  -0.5000290  -0.1092960   0.1937398  -0.0261279
  -0.4463395   0.8475083   0.6629263  -0.5052513  -0.6233027   0.3407439
   0.2442389   0.1720693  -0.0241562  -0.9406762  -0.6126576   1.0155031
   0.4508526  -0.0955268  -0.7489757   0.1900632   0.2398612  -0.0893063
  -0.7903738  -0.7226525  -0.2383178   1.5176283  -0.5738802  -0.5661570
   0.4862670  -0.0709583   0.2856101   0.4277636  -0.3797404  -0.4231161
   0.4731057   0.7044336   0.8869982  -0.0335227  -0.0160352   0.0208352
  -0.0784520   0.1668262   0.3416297  -0.6419716   0.9491519   0.2671879
   0.1545481  -0.2749774   0.0124615  -0.0711999  -0.6587563   0.2390545
   0.8059074   0.2931045  -0.2404925  -0.0068252   0.1964699  -0.0045848
   0.1040690   0.5052731  -0.7508031  -0.2522927   0.2394878   0.0896805
   0.2019427  -0.0372507  -0.1023276   0.2143298  -0.1796326  -0.0874822
   0.3439283  -0.5905950  -1.3450661   0.3902523  -0.0022504  -0.0295645
   0.7966235  -0.5493142  -0.6936492  -0.5528477   0.1263548  -0.5065667
   0.2439324   0.0362009   0.1552596   0.1649756  -0.1383795   0.5028424
   0.5725374   1.2010725  -1.1824613   0.0244107  -0.0293836  -0.1129719
   0.3239522   0.0758614   0.0391580  -0.4816680   0.0832779  -0.1472093
   0.0992097   0.0977979   0.3919193  -0.4002781   0.4090361   0.1079508
  -0.4810538  -0.9653253   0.7495181   0.0953584  -0.1219000  -0.0214851
   0.3893062  -0.4479934  -0.1147578  -0.8841173  -0.7755767  -0.4160475
  -0.1087133   0.4025528  -0.0904478  -1.0213526  -0.4530158   0.8902941
   0.5620060   1.2785499  -1.1238680   0.5198089   0.0716991  -0.0789091
   0.0010986   0.4977343  -0.1444906   0.3243000  -0.4478680  -0.5049883
  -0.1554513   0.1043309   0.1897064   0.7287233  -1.3877952  -0.5555856
   0.9684301   0.0544625   1.2805265   0.0260686  -0.1936643   0.3144147
   0.4854092   0.6981149   0.7748190   0.1941995   0.9355006   0.2333068
   0.2849834  -0.1725473  -0.2211768  -0.1102559   0.1981137  -0.4562775
   1.0884009   1.1783484  -0.5233947   0.0154530   0.0983077  -0.0399440
   0.3569880   0.2918102   0.2475762   0.5359915  -0.0216462  -0.5044528
   0.1850363  -0.0768772  -0.3885561   0.6934314   0.0500193  -0.0718662
   0.1856816  -0.4108789  -0.6170162  -0.2752628  -0.1148973  -0.1027074
  -0.2062521   0.0064691   0.2725378  -0.3660572   0.0193417  -0.3350294
   0.4431469  -0.0850727  -0.1340531   0.3148889  -0.5686984  -0.1593799
   0.6984055  -0.0802439  -0.1342920   0.1492415   0.3379511   0.0844597
   0.0917779   0.0628154   0.2611763   0.1652810   0.9357545  -0.3373718
   0.1231797   0.0076335   0.1375574   0.6130296  -0.5429734  -0.0349944
   0.7910745   0.2398492   0.8801866  -0.1700850   0.0915229  -0.0256993
  -0.5903098   0.0800175   0.0979270  -0.6296260   0.8094828   0.2080573
  -0.2874729   0.3857973   0.1056260  -0.1349993   0.4222088  -0.1811333
  -0.4118166   0.4994016  -0.1171500   0.2036593   0.1091475   0.0862326
   0.3970684  -1.1017243   0.1690366  -0.1701432  -0.1175873   0.2855843
  -0.3346790   0.2089827   0.1323497  -0.4997223  -0.1918173  -0.2431866
  -0.6408884   0.0800963  -0.0698563  -0.0032204   0.0108699  -0.2271680
  -0.2328441   0.0885421  -0.2292165  -0.0030957  -0.4036905  -0.0165342
   0.1332179   0.1218979   0.0315608   0.1774451   1.1721029  -0.4373877
  -0.5789787   0.2939799   0.7625347   0.0801669  -0.1640433  -0.0948636
  -0.3238366  -0.9397129   0.1835439  -0.6151307   0.1552616  -0.7075983
   0.2111023   0.2316985   0.0294831   0.6274744   0.1669682   0.0414747
  -0.6979265   0.7836786  -0.6432960  -0.0608325  -0.1705930   0.0871524
   0.6014528  -0.6838486   0.0490481   0.0708515  -0.0714022  -0.1175411
  -0.3411071   0.1107816  -0.1685296   0.1983885  -1.6121951  -0.5428942
   0.9722829  -0.0993473   0.9085846  -0.0989051  -0.0163258  -0.1618925
  -0.3790494   0.1543461   0.6291694  -0.5911556   1.0932827   0.9116837
  -0.0480788  -0.2659297  -0.0148822  -0.3516381  -0.4336141   0.7441537
  -0.0220578   0.3533097  -0.2614082   0.1851304  -0.0097613   0.0952515
  -0.0290762   1.4325734   0.3844259  -0.0762673   0.6294629   0.0763371
   0.1783963  -0.1558522  -0.1010522   1.0581192  -0.6781145   0.2278073
  -1.1992603  -0.2053924   0.2284841   0.0192205  -0.3113871   0.2804756
   0.1937771   0.1558581   0.9566573   0.5736410  -1.7429907   0.7218799
  -0.1641426  -0.0842168  -0.1958696  -0.5675313  -0.9829108   0.6943890
  -1.1907120   0.4325393  -0.6335087  -0.1005310   0.0182864   0.1026910
   0.1085705  -0.2748356  -0.2397394  -0.6370006  -0.2127203   0.1945596
   0.0093891  -0.1400014   0.0230863  -1.5024449  -0.8650852   0.0124087
  -0.3290855  -0.0969894   0.0299031  -0.2125969   0.0189572  -0.0341831
  -0.0751320   0.2806846  -0.1549918  -0.2613186   0.2791513   0.1073866
  -0.0121647  -0.1083194   0.0364221   0.5619278  -1.6331525   1.5237092
   0.7192347   0.3100374  -0.1633845   0.4948561   0.0332109   0.2633839
   0.7647530   0.1982998   0.5302037  -0.5295129  -0.3704516  -0.6025496
   0.0166595   0.0773193  -0.0232736  -0.1147013   0.0601487   0.1310933
  -0.0257113   0.0258271  -0.3918255  -0.0767821  -0.1382220  -0.1418350
   1.3108935  -0.2301675   0.2970340  -0.5520191  -0.5509565   0.6188369
   0.1940625  -0.0525959  -0.5244114   0.4144099  -0.1993460  -0.0281230
   0.0379781   0.0476518  -0.9963080   0.1255777   0.2401145  -0.0319873
  -0.6457019  -0.5427195  -0.6472907   0.2127937  -0.1305364  -1.6816676
  -0.0321350   0.0894515   0.0225166   0.0147980   0.3155849   0.0724425
   0.1780134   0.4648712   0.3003953  -0.1231918   0.3301127  -0.2629127
   0.6268606  -0.1839067  -0.6851636   0.0845611   1.1481092  -0.2411367
  -0.1614738  -0.1852301  -0.1030376  -0.8073714  -0.2765873  -0.2411057
   0.5150759   0.1329970   0.2052378   0.0624344   0.1601138   0.2097147
   0.7716971   0.9503523  -0.0096460  -0.2324909  -1.5105306  -0.1719672
   0.0762588   0.1029276   0.0061727   0.0843752  -0.5687548  -0.3614493
   0.8209835   0.6801112  -0.1306079   0.0778946   0.0390369   0.2203314
   1.2186020  -0.2443492   0.4864100   0.3304876   0.9385908   0.1393405
  -0.3019181   0.0465833   0.0465583   0.9465554  -0.1196880  -0.1400827
  -0.8760275   0.1616173  -0.0447060  -0.2213031  -0.3438975   0.0413650
   0.0528739  -0.2864314   0.0306154   0.2741991   0.2689060   0.0050992
  -0.1177445   0.1505461  -0.1133180   0.2278740  -0.6234080   0.1703766
   0.4005189   0.4936434  -1.0436831   0.0406531  -0.1441349   0.2830681
   0.6669038   0.5861522   0.3469812   0.4746010  -0.7783487   0.6723105
  -0.1664544  -0.0804985   0.1984770   0.5274884   0.3975751   0.8121138
   0.2840740  -0.0166035  -0.7269518   0.0575430   0.2382532   0.0989320
   0.7276373   0.7512169  -0.2638090  -1.1388331  -0.4094137  -0.0146520
  -0.1957755  -0.0118513   0.1979568  -0.7265109   0.7290406   0.3760570
  -0.0039596  -0.2927811   0.1343711   0.3682489   0.0777888  -0.0557952
   0.3642896  -1.0362252  -0.5779363  -0.7972014   0.4153392  -0.4948877
   0.0686091   0.0671326  -0.2913183  -0.0389018  -0.4015996  -0.1863145
  -0.9001148   1.1045775  -0.5812790  -0.1784525  -0.0544484   0.1482669
   0.3794317  -0.6793359   0.7811833   0.5200535  -0.0768858   0.1288697
   0.1088102   0.2535236  -0.0614532  -0.2111762  -0.5819752   0.1850041
   0.2587987  -0.2193326  -0.2268090   0.0066608   0.1711689   0.1177747
   0.0792733   0.0673663   0.3680355  -0.4237809  -0.0367715   0.4579829
  -0.0462668  -0.1812738  -0.0568119  -0.0286181   0.0230202  -0.0585266
  -0.1804671  -0.1873103   0.0700825  -0.0657359  -0.1440935   0.2793894
   0.4026179  -0.4928873  -0.0636056  -0.6261402  -1.1541485   0.4524288
  -0.0541129  -0.5355421   0.0811890  -0.0325166  -0.3319250   0.0466168
   0.0435600   0.2379266  -0.3704409   0.0464763  -0.2129758   0.4056381
  -0.2536513   0.3775434  -0.4276081  -0.9243069  -1.1168974   0.3387765
   0.1604208   0.1016369   0.0463099   0.1020767  -0.3762321  -0.3536400
   0.3909595  -0.1272764   0.6947559   0.0005137   0.1984552   0.2262176
   0.2066202   0.4549301   1.2993406  -0.4143243  -0.1162665   0.4549395
  -0.1249989  -0.0272799   0.0713374  -1.0975426   0.3774096  -0.2426351
   0.7858434   0.5174503  -0.1795147  -0.2422703  -0.1320371   0.1290717
  -1.1998563  -0.2572019  -1.3185305  -0.0813815   0.3390548   1.6365595
   0.2278450  -0.5380517   0.1263542  -0.1892256  -0.8419735  -0.3705123
  -0.6036389   0.0052062  -0.4677491  -0.0025612   0.0308753   0.0511987
   1.4535416   0.1539214  -1.1637597   0.0991886  -0.1072923   0.3226517
   0.2870090   0.0985137   0.2755893  -0.7390494   0.3959730  -0.8497330
  -0.3215273   0.2851627  -0.3780136  -0.3717685   0.0912709  -0.1981535
  -0.1238892   0.1167135  -0.5536009   0.8057869  -0.3892570   0.3201217
  -0.4055622   0.1389878  -0.2001876  -0.9387864  -0.0482411  -1.2294753
   0.7489981   0.1932467  -0.5128348   0.0567103   0.1228953  -0.0789008
  -0.2103882   0.5977319   0.1307119  -0.1051583  -0.1216708   0.1553742
  -0.1819950  -0.1758704   0.0160527   0.1049138   0.5704471   0.5493880
  -0.0710682  -0.5572323   0.1278059  -0.0245415   0.0119370   0.0221925
   0.3107687   0.4919727   0.0459387   1.0114762   1.3467646  -0.6842947
   0.2577956  -0.5296100   0.1470584   0.2893340  -0.4300464   0.5021308
  -0.1434949  -0.0886121  -0.2675393   0.0889745  -0.0709270   0.0464300
   0.1557528  -0.0643911   0.1492453  -0.0387309  -0.0744763   0.0437760
  -0.0053515   0.0033388  -0.1109513   0.3936484   0.4600512   1.3538268
   0.7733972  -0.3944889  -0.6873582  -0.2547255  -0.1431773   0.1680998
  -0.1103697  -0.0798418   0.1146522   0.0439340   0.2952013   0.1068135
  -0.0472252   0.1562656   0.3468105   0.0881347   0.2442045   0.4150392
   0.3345398   0.0139472   0.0257033   0.3803785  -0.1110977  -0.1083599
  -0.2159060   0.2616133   0.0791265   0.6153931  -0.5410083  -0.2572812
  -0.0007602  -0.0702469  -0.5357553   0.6573313  -0.5356118  -0.7517836
   1.2448735  -0.6807551  -0.1861132  -0.0357392   0.0683006  -0.0393541
   0.6837849   0.6935818   1.2335819  -0.5951602  -0.7332699   0.3578376
   0.0260174   0.1421773   0.2057734  -0.3832147  -0.7935792   0.3899587
   0.5484971   0.6147518   0.7580035   0.2464069  -0.0178461   0.2678695
   0.1993975   0.4951670   0.4543058   0.5181135   0.4789103  -0.6349728
  -0.0242514   0.3460540   0.0114552   0.3771084   0.4671890  -0.5324177
   0.6708214   0.3039105  -0.5324707   0.1587570   0.1673718   0.1656391
  -0.0947543  -0.0495038   0.3213555   0.3591240   1.1954785   1.3842315
  -0.0231484  -0.2065575   0.4683113   0.7299923  -0.3130616   0.5210888
   0.5147431   1.2022246   0.2444298  -0.1066925  -0.2718032  -0.2069930
  -1.4726881  -1.0761951   0.7409979   0.2442506  -0.9179162  -0.9009069
  -0.1133791   0.4347057  -0.1296455  -1.5311021  -0.3757455  -0.5745113
   0.3576234   0.1541804  -0.8553351   0.2094139  -0.3626824  -0.0078825
  -0.1662259   0.2915826   0.6975689  -0.7372468  -0.5987258  -0.8113266
  -0.3078969  -0.0508386  -0.0127295  -0.7413291   0.2361948   0.9810946
  -0.1235644  -0.6752867  -0.5843174  -0.0172456   0.1050189   0.2405591
   0.1173122  -0.1154363   0.4831960   0.4852602  -0.4320586   0.5252016
   0.0736836   0.2555123  -0.1912087  -0.4143230  -0.0896091  -0.6316879
   0.5167688   0.4547084  -0.7246532   0.1467323  -0.4445021  -0.0160451
  -0.7934126   0.0646270  -1.7189189   1.5831168   0.0810975   0.6032069
  -0.1505250   0.1802817  -0.1892188   0.9519483   0.3735528  -0.0470464
   0.0091235   0.4401894   0.7338441  -0.1086603  -0.1505522   0.1335047
  -0.4116705  -0.3564055   0.0083514  -0.4485445   1.3841586   0.9470093
  -0.0796589   0.0219685   0.2193760   0.3112336   0.4894137   0.1772375
  -0.0026814  -1.0493381   0.7931867  -0.2051060   0.0005641  -0.0477338
   0.5113366  -0.1155797   0.1650427  -0.5089785   0.1029698   0.3014938
  -0.0232988   0.1183296  -0.0685812  -0.1334813   0.2547816   0.2273832
  -0.5197744   0.2852006  -0.5580532  -0.1747665   0.2937899   0.0244476
  -0.3068966   1.0979477   0.2357656  -0.4272095  -0.4295611   0.3207786
  -0.1831449  -0.1968647  -0.0778817  -0.2573536   0.1273011  -0.0897972
   0.1267570  -0.0012586  -0.3371427  -0.3397266   0.3194134  -0.0101196
   0.5680802  -0.6640004   0.0301876  -0.6604600   0.2996990  -0.1691363
  -0.0153701  -0.0071663   0.1648607  -0.1358360  -0.2160292  -0.1337393
   0.7030437  -0.6310617  -0.2406770   0.0242132   0.1438289  -0.0729840
   0.1078766  -0.2462302  -0.5590247  -0.0478283   0.1239065   0.5877846
  -0.1834925  -0.1002886  -0.0407842   0.7071893   0.8026109   0.4346886
  -0.2313484   0.6444696   0.1869602   0.3958976   0.0038728  -0.1927284
   0.7882077   0.2061497  -0.1923590   0.3852455  -0.4400980  -0.1565132
   0.1244973  -0.0883095   0.0828752   1.4116022   1.0111498  -0.2923313
  -0.6457163  -0.0850331   1.6578314   0.1621229  -0.1053289  -0.0256003
   1.7148939   0.0916849  -0.4370029   0.2333377   0.0291902  -0.2577883
  -0.0077231   0.0866578  -0.0678117  -0.5398320  -0.0034908  -0.0692936
  -0.0040334   0.1134007  -0.0469714  -0.0910771  -0.1227290  -0.2605598
   0.2434348  -0.1648721  -0.7121991   0.2142884  -0.1102266  -0.5059498
  -0.2070494   0.0685112   0.0660665   1.0046102   0.6048876   0.3982197
   0.3320586   0.9884343  -0.3889682   0.1108022  -0.0897015  -0.2445608
   0.0656772  -0.0355099  -0.0122214  -0.3189104  -0.9237692  -0.4026390
  -0.2890341   0.0554454   0.2352920  -0.8896093   0.2647852   0.0171091
  -0.1754559  -0.0513497   0.2437623   0.2213407   0.1202813  -0.0653005
   0.3799474   0.5420532  -0.3950149  -0.5326866  -0.1057888  -0.6374264
   0.0615088   0.1782550   0.0493158  -0.8650582  -0.5416279  -0.0696027
  -0.5228145  -0.8824094   0.7508398  -0.2960122   0.2183912  -0.0630796
  -0.2003929   0.4762239  -0.0677203   0.1068350  -0.8057005   0.9014570
   0.0334552  -0.1509626  -0.1157414   0.2265778  -1.3952293   0.1165944
   0.6729446  -0.2578520  -0.8084547  -0.1856358   0.0080145  -0.0425658
   0.8755339  -0.4216389   0.3762134  -0.1015683   0.1141000  -1.1538187
  -0.2619485   0.0948513  -0.0122976   0.0883560   0.2144346   0.1471954
  -0.1096295  -0.1712390   0.2350463   0.0895675  -0.0608609  -0.0157981
   0.7012377   0.0598214  -0.2645230  -1.0437422   0.4806354   0.2537074
  -0.0803789  -0.1666732  -0.0003244   0.1318228  -0.4686194  -0.0025695
   0.3107423  -0.4376880   0.2344479  -0.0004698   0.2881876   0.1143033
   0.6290865   0.2442188   0.0062629   0.0584660  -0.2247370  -0.2441552
  -0.0960609   0.0768599  -0.0213828   1.2380903  -0.3788622  -0.0357395
   0.2739628   1.9975131   0.5601299  -0.1367017   0.0948735  -0.1670029
   0.6092517   0.0916960   0.2722235  -0.3095117   0.1596028  -0.3005896
   0.3165554  -0.2543063   0.1093340   0.3504190  -0.3897448   0.1652606
  -0.4039062  -0.5752506   0.2523887   0.0746241   0.0482814   0.0138536
  -1.0461034   0.5685871  -0.0508797   0.5395186   1.0262689   0.5579543
   0.0788246   0.1771050   0.4614893  -0.0958695  -0.3898628   0.9521843
   0.1240332   0.1306758   1.0947981  -0.0696764   0.3659484   0.0042731
  -1.2930571   0.0832962  -0.7758260  -0.3692592  -0.7079301   0.6382879
  -0.0278912   0.0283618   0.0315977  -0.1665082   0.7274189  -0.2244477
  -0.1131604  -0.0853608  -0.0478503   0.0577338   0.1898234  -0.0109213
  -0.1710418  -0.7213078  -1.3593909  -0.0293420   0.1745806   1.1287151
   0.1977430  -0.2794522  -0.0538241   0.5414900  -0.2134623  -0.5482263
   0.5956440   0.5804446   0.3662703  -0.1078815  -0.1253356  -0.0996601
  -0.6018280  -0.8053809  -0.2646933   0.5320967   0.3700661   0.0001020
   0.1129897  -0.1758070   0.1607350   0.0498189  -0.0718507   0.1609550
   0.3130467  -0.2024344  -0.5298086  -0.2972120   0.0319529  -0.2254866
   0.4687049   1.1912796  -0.8553704   0.0312803   0.8084058  -0.4410824
  -0.0797236  -0.0817401   0.1227657  -0.2720663   0.9488204   0.2997947
   0.8333248   0.4186161  -0.4520104   0.1303452   0.0250066   0.1537908
  -0.1839840   0.0723038   0.3507862   0.1164164   0.7317245   0.5541763
   0.0272473  -0.0629937  -0.3528572   0.0800696  -0.5618094  -1.9627993
  -0.7024791   0.1393839   0.7884594  -0.0532465  -0.3569201  -0.0660955
  -0.6169704   0.7534251  -0.2128129  -0.0510623  -0.3359512  -0.0643406
   0.2720358   0.2628582   0.1348946   0.9144529   0.3460066   0.1159565
  -0.0116742  -0.1170116   0.1563341  -0.1334610   0.1361273   0.1670551
   0.6315190   0.4589500   0.6454906  -0.0932393  -0.2372341   0.9250510
  -0.2677641   0.2512788   0.2379281  -0.1073775  -0.5825992   0.9136797
   0.2176084  -0.0751168   1.1909104   0.3147721  -0.2364895  -0.1581462
  -0.2942082   1.0160279  -0.5158815   0.1339703   0.0717146   1.1458964
   0.0189244   0.2119182  -0.2120990   0.0482147   1.0820491  -0.0872186
  -0.2466124   0.0252782  -0.6341589  -0.4138653   0.0750205  -0.1533959
  -0.5459629  -0.2377502  -0.0211962  -0.1436039  -1.6035249  -0.2436273
  -0.1370496  -0.0959222   0.0113923  -0.0970169  -0.0592786   0.7210473
   0.2892052  -1.7134718  -0.5898269  -0.0953437  -0.0575680   0.0737927
  -0.0848364  -0.1421827   0.3244866   0.0422983   0.1468830   0.0609811
   0.0663310   0.3117501   0.0754534   0.2648224   0.5656817  -0.1638505
  -0.0428270   0.0573826   0.2888325   0.0164518  -0.0726301  -0.1691556
   0.3026189   0.3004967  -0.4073275   0.3527439  -0.3553692   0.5955679
   0.0376056   0.0731916  -0.0502021  -0.4240873  -0.1185540  -0.0827289
   0.3686948  -0.5942624  -0.1189356  -0.0730134   0.3002049  -0.1368529
   0.3820269   0.3470092  -0.6020285  -0.3589437  -0.1062369   0.1170106
   0.1124710   0.4043568  -0.3176686   0.5480055   0.3471823   0.2112797
  -0.2351288   0.7346886  -0.2826562  -0.1265268   0.0724755  -0.0742802
  -0.1975685   1.0129252  -0.2263968  -0.0771594  -0.2088313  -0.0773983
   0.0544551   0.0340842  -0.3074921   0.5390471   0.2708387   0.6753409
  -0.4045866   0.0107810  -0.7296134  -0.4553774  -0.2537059  -0.0441806
   0.4875287  -0.5217574  -0.3093306  -0.5904193  -0.2243074   0.7250916
  -0.0381664  -0.0115628  -0.1721207   0.2232621  -0.0480103   0.3677361
   0.2802574   0.1880698  -0.8655030  -0.1231923  -0.0809019  -0.1646818
  -0.8897611  -0.3564204  -0.3679574   1.5820221   0.0404194   0.1371943
   0.2307526  -0.0432387   0.1414234   0.0439169   0.1261993   0.7068130
  -0.4041880   0.6023688   0.1161461   0.0282761   0.1448768   0.0939152
  -0.3846336   0.1449260   0.3524072  -0.6871562   0.0707950   0.8913934
  -0.1056648   0.0632926   0.0968733   0.1630650   0.4597320  -1.0134719
  -0.3551640   0.4046699   0.8683603  -0.1156803   0.3568460   0.1379583
  -0.2462827   0.0594176  -0.2483266  -0.0064083  -0.0594776   0.8236024
   0.0367830  -0.3279819  -0.0477226  -0.2473325  -0.4243726  -0.3468499
  -0.1818428  -0.0945317   0.2284010  -0.2535681   0.0448273  -0.0737976
  -0.3570478  -1.0286143  -0.0479261  -0.5463799   0.0136886  -0.2427746
   0.1761421  -0.0525873  -0.0685299   1.2641220  -0.5279290  -0.8675366
  -0.2935650   0.2116339  -0.7387349  -0.0451077   0.2053522   0.0724474
  -1.4336660  -0.5915623  -1.1905712   1.5573024  -0.4460947  -0.1690978
  -0.0292842   0.1061385   0.0294480  -0.0707719  -0.0357476   0.4969385
   0.0789647  -0.2088302  -0.7083272   0.0121242  -0.0827336  -0.1327380
   0.1037852   0.6624481  -0.6987075  -0.5993527   0.0139795  -0.0961359
  -0.0702711   0.3512206   0.0155079   0.7561313   0.1354142   0.2239758
  -0.4031413   0.9669076   0.1362063  -0.0673387  -0.5286230  -0.2076998
  -0.0325835  -1.2797376  -0.1414635   0.0201820   0.1921814   0.3612307
   0.1994245   0.1032718  -0.1881226   0.4986708   0.3302183   0.7607398
   1.4926786  -0.7818278   0.3392609   0.2640000  -0.1599763  -0.0892922
   0.1064065   1.1980555   0.3697076   1.5707463   0.3446458   1.4016290
   0.1547135   0.0734430   0.3481981   0.3254398  -0.1406849  -0.0906018
  -0.1902680   0.1492969   0.7111986   0.1146391   0.0360229  -0.1483138
  -0.6509297  -0.3818133   0.3197267  -0.0390143   0.9023450  -0.0167807
  -0.3645982   0.0620404  -0.1554022   0.1291265  -0.6171028  -0.8337343
  -0.7653495   0.3023006  -0.0986906   0.0333891  -0.2564379  -0.2674613
  -0.9789318   0.2180494  -0.7365252   0.1102488  -0.2002798  -0.3403640
  -0.0152798   0.1592976  -0.0080630  -0.1215249   0.2521512  -0.0351007
   1.1467885  -0.7043589  -0.0053235   0.1044499   0.1040999   0.0863166
   0.0954135   0.8918120  -0.1935007   0.2899176  -0.3205689  -0.8742449
   0.3573376  -0.1136863  -0.2081285  -0.2198905  -0.0767887   0.2220959
   0.5489422  -0.5290513  -0.2752637   0.0401932   0.0844767  -0.2264923
   0.4383838  -0.4715029  -0.3696954   0.0741245  -0.0931134  -0.4939166
   0.1507240   0.0976563   0.4099504   0.5418517  -0.0031084  -1.1559921
   0.3753862  -0.2991326   0.2655908   0.1059895  -0.1291459   0.0885718
   0.2801043  -0.0373148  -0.3208654   0.6011057   0.0719118  -0.6967708
  -0.4741150   0.1095884   0.0997285  -0.3824042   0.6607979  -1.0090630
  -1.4689723  -0.8255789   0.5682717   0.0701007   0.0009150  -0.1472268
   0.6496158   0.2115665  -0.4430602  -0.4463746   0.9030155   0.4185147
  -0.3333624  -0.1784664  -0.0517399  -0.6668922  -0.3758683  -0.6355318
   0.8142028   0.6552225  -0.0217344  -0.1804785   0.2355886  -0.4300138
  -0.1699927   0.5680226  -0.4250811  -0.1603673   0.5113645  -0.1935654
   0.3093955  -0.0439921  -0.1735819   0.8000348   0.1794116  -0.1641425
   0.1635910   0.0711406   0.2839056  -0.0371165  -0.2823436  -0.0145200
  -0.1769125  -0.7021825   0.0976769   0.2243030  -0.8625141  -0.2092106
   0.2835236  -0.0731158  -0.0060954   0.3103409   0.3843417  -0.2259957
   0.1143842   1.6470244  -1.2963458  -0.1598992  -0.2763867   0.2062963
   0.3252378   0.1767612   0.8323353  -0.2621352  -0.1317705  -0.5955413
  -0.1287356   0.0750242   0.0098364  -1.0141596   0.0852758   0.3403809
  -0.9080874   1.1657721  -0.1635732   0.2058325   0.1189166   0.0416403
   1.0105025  -0.5326009   0.2582848   0.2873076  -0.8407677   0.7790254
  -0.3441541   0.1692594  -0.3441090  -0.0923443  -0.6661922   0.2393071
  -0.3276931   0.1865308  -0.3181839   0.1395899   0.1349133   0.3555434
  -0.8076851  -0.6305025   0.4138538   0.2959783   0.1670427   0.2137257
   0.0496940  -0.1750128   0.0628998   0.0069657  -0.1564540  -0.7423325
  -0.3588270  -0.3068740  -0.9867925  -0.1467172   0.1299810   0.0717561
   0.2386518   0.7741491  -0.1156181   0.4288651  -0.0323472   0.6003923
  -0.1769698   0.0172621  -0.0837841   0.2204233   0.9429042   0.9611475
  -0.4253962  -0.0235643   0.3368686  -0.0695596   0.1457867   0.0020288
   0.0620281  -0.0962866   0.5240116  -0.5831976   0.5919798   1.3665666
   0.1172083  -0.2086347  -0.1563132   0.1004892  -0.3970020  -0.1868974
   0.1841049   0.5156988  -0.0411729  -0.4420075  -0.1405755  -0.2087609
  -0.4615233  -0.0981501  -0.3408084  -0.4019956  -0.4910490  -0.4930934
  -0.1122171   0.0136932   0.1120361  -0.0356188   0.4013355   0.6196415
   0.0646398  -0.4806843  -0.8346845   0.0966394  -0.0355736   0.0984385
   0.0625432  -1.5790889   0.5527251  -0.4588964   0.6081758   0.8730790
   0.0020005   0.0481814   0.1041667  -0.4142277  -0.4491361  -0.6279597
   0.0871233  -0.6738743   0.9977581  -0.0579638  -0.4425893  -0.0600573
   0.1493178  -0.5194372  -0.1325263  -0.8048382  -0.0583831  -0.8500319
  -0.0222627  -0.0144883   0.0171783   1.1963176  -0.1098130   0.0978096
  -0.4456187  -0.4971546   0.5519992   0.1575327  -0.3931796  -0.0346512
   0.4885670   0.6658414   0.6464169   0.0643053  -0.7543510   0.3626141
  -0.0279313  -0.1468232  -0.3371848  -0.0274579  -0.0787275   0.0714754
   0.6722339  -0.2267180   0.0811856  -0.1027361   0.0723855  -0.2407493
  -0.3985348   0.0918528  -0.1931365   0.1364092  -0.0287615  -0.4705508
   0.3800712   0.0258136   0.1507772  -1.2312142  -0.5223501   0.6743770
  -0.5529930  -0.3139822  -0.4137983  -0.1152905   0.0083992   0.1470544
   0.9417058  -0.8566353  -0.1176935   0.4133519  -0.7304533  -0.1781914
   0.2795840  -0.2707496   0.0942628  -0.4033939   0.5917304   1.3945082
   0.1488632   0.6950689   1.0955547   0.3209265   0.2151248  -0.1742986
   0.8210703   0.4499498  -0.3319904  -0.3657611  -0.0232886  -0.0901451
   0.1588298  -0.1242031   0.0911096   0.5287170  -0.3076989   0.1984618
   0.1768308  -0.3442465  -0.1446000  -0.2793834   0.0446196  -0.0422260
   0.2041931   0.5832622   0.3216923   0.2134095  -0.2627961  -0.6298988
  -0.0628087  -0.0732922  -0.1299790  -1.2078564   0.3410543  -0.4657654
  -0.1631816  -0.3523928   0.6177901  -0.0554754  -0.0620624  -0.1923249
   0.0389370   0.2890757  -0.3865903   0.3537751   1.0522984  -0.5634047
  -0.1921515   0.2589825   0.1842048  -0.6680398   0.8740432  -0.1240046
   0.4757662   0.0413621   0.1931657  -0.2420399   0.0318257   0.1923879
   0.3843602   0.3580843   0.3482725  -0.6143773   1.2461962   0.1276813
  -0.0536669  -0.1976549   0.0278435  -0.0830440  -0.3924893  -0.6460688
   0.3791165   0.3824357  -0.0119688  -0.1496994   0.0072292  -0.1493532
  -0.1218484  -0.0551038  -0.6087377  -0.6472653  -0.2432008   0.1583981
   0.1678102  -0.4044113   0.0141498   0.4614978   0.1130243   0.0269040
   0.3860615  -0.1114122  -0.0595735   0.0655764   0.1038292  -0.0711333
  -0.2890011   0.3633158   0.2849789   0.3713044   0.3345787  -0.8903178
   0.1821445   0.1188508   0.1533766   1.3657263   0.5633411   1.3412558
   0.0229041  -0.8248396   0.9226689   0.1775959  -0.0610471   0.2066565
  -0.3387734  -0.6058586   0.5945071  -0.4934709   0.5436435  -0.0717977
  -0.2456095  -0.2449844  -0.0220400  -0.4534044  -1.5293107   0.3524215
  -0.2670660   0.9105462  -0.8127790   0.0625792   0.1640174  -0.0992905
   0.1216037   0.2119857   0.0388402   0.4022979   0.7947906  -0.3381210
   0.0419577  -0.2278168   0.0267185   0.1313482   0.6706612  -0.6140593
   0.6556815  -0.5115562   0.5330846   0.1169089   0.1611794   0.2287280
  -0.0200880  -0.1057684   0.7185891   0.1195290   0.4145061   0.5328973
   0.0331221  -0.1537368   0.0285043  -0.5768793   0.6829003  -0.1320273
  -0.8979117   0.3823555  -0.3158978  -0.0653977   0.2959466  -0.0789164
  -0.3054804   0.7153038   0.5429773   0.6022702  -0.2663623   0.0775491
  -0.0487504  -0.1896766  -0.1691824  -1.2850322   1.1476369   0.5619113
  -0.7127661   0.5399508   0.1840311   0.2137902   0.4019208   0.2266812
   0.2038839  -0.1660483   0.7458987  -0.2689128  -0.1302570  -0.1141171
  -0.1496964  -0.0710198   0.1804159  -1.0701351  -0.1925749   0.4678040
  -0.4119394  -0.1756571  -0.6674490   0.0503200   0.0224509   0.0224857
  -0.1561436   0.1119302   0.4234370  -0.1597300   0.2547679  -0.2697006
  -0.1551082   0.0181226   0.0233262   0.9694307   0.0780604  -0.9765787
  -0.4256743  -0.9840601  -0.4513524   0.0777456   0.3861064   0.1758481
   0.2324704  -0.1183615   0.4382195  -0.1690476   0.9753298   1.1492981
   0.0747524  -0.0010784   0.0041932  -0.2343521  -0.1031934   0.8478948
  -0.1434578   0.1760033   0.7918468  -0.2514016   0.0435137   0.0954461
   0.0295533   0.3119158  -0.8257527  -0.1054761   0.0730011   0.1413197
   0.0913868  -0.1237163   0.3839434  -0.0244998   0.3050263   0.7492334
   0.1210423  -0.2049181  -0.1237385  -0.0247120  -0.1736158   0.3024154
   0.3416113  -0.7743010   0.1262159  -0.1959273   0.2114262   0.4737859
  -0.2235834  -0.2932420   0.1090898  -0.5907181  -0.1962886  -1.6685294
  -0.0248240  -0.2473760  -0.3006039  -0.1642217   0.0674395  -0.0001660
  -0.2283904   0.1041369   0.5245660   0.0620984   0.1259309  -0.0598278
  -0.1237171   0.1075072   0.0181352   0.7007781  -0.2101181   0.9745724
  -0.3773625   0.2522811  -0.7643464   0.1528250  -0.0195692  -0.1222914
   0.0213269  -0.6876492   0.1364346   0.6163049   0.2742329   0.3578055
   0.1168694  -0.1079714  -0.1258837   1.2237228  -0.2777852  -1.0660475
  -0.7502107  -0.8478892  -0.6499163   0.2488302   0.2277069   0.0759321
   0.3196839  -0.9191029  -0.5810633  -0.4236757  -0.0293630  -0.1702834
  -0.0272255   0.0640726   0.0778998  -0.2122054   0.2879539   0.1380757
  -0.3736713   1.0885658  -0.7689182   0.2137500   0.0235848  -0.0142128
   0.0442577  -0.0604301  -0.0804671  -0.1215950   0.1372848  -0.2833202
   0.1069066   0.1165682   0.0937677  -0.2454252   0.3385332   0.1145839
   0.3546618  -0.8885258  -0.4872663   0.0130820  -0.1643639  -0.3031210
   1.2891298  -0.4107888   0.9090974  -0.5502799   0.1552823   0.4370793
  -0.1065358   0.1741126   0.0902924  -0.0310116  -0.0768383  -0.0061818
  -0.4260032   1.2503439   0.4821905   0.3161953   0.0050022  -0.0083895
   0.2169531  -0.7138612   0.8690494  -0.2476330   0.1697139  -0.5673196
  -0.0735109  -0.1148770   0.1023519   0.1813779   0.0675070  -0.2111169
  -0.7423884   0.8880540   1.6840350  -0.1164632   0.0855803   0.3137402
   0.4035720  -0.0836030  -0.2424635  -0.7349951   0.7282479   1.0803162
  -0.0882180   0.0051097   0.0298553   0.9201305  -1.2221922   1.6221975
   0.1028187  -0.2402395  -0.5806388   0.0236272   0.1289696   0.0946062
   0.7730392   0.0094094   0.0452133  -1.1887699  -0.0859280   0.1099942
   0.0315017   0.3658868  -0.2364730  -0.0024699   0.0847227  -0.3528990
  -0.1077842   0.4499605   0.0135504   0.2377177   0.1334614  -0.2975098
  -0.4926091   0.9355280   0.1697653  -0.5420559   1.4315174   0.0277489
  -0.1956872   0.0715428  -0.1740756   0.5065412   0.2832415   0.0995090
  -0.1460148   0.2039618  -0.2868294   0.0764863   0.2204225  -0.2551793
   0.5438108   0.0748486  -0.3182754   1.1654881   0.4301501  -0.8120015
  -0.1921482  -0.3243489   0.3569160   0.5219989   0.5609441  -0.3085094
   1.2342462  -0.5528834  -0.1178818  -0.0566103   0.1926844   0.1504529
  -1.2109275  -0.1944918  -0.3434964  -0.7054652  -0.2878212   0.8777318
  -0.5110831  -0.2691687  -0.3560222  -0.5730219  -0.3400165  -0.1838490
  -0.9755947  -1.5809116   0.3490246  -0.3303558   0.0104869  -0.2493512
  -0.5664262   0.5070685   0.0983052  -0.0948184   0.4738555   0.5467732
   0.0200879  -0.0225208   0.0369283  -0.2523386  -0.1205444   0.2889819
  -0.0542235  -0.1316011   0.1950371   0.2569739   0.0122847   0.0812104
   0.3011461   0.0953749   0.3489258   0.1152154  -0.2403224  -0.6401641
  -0.2226060   0.0665335   0.1362092   0.3708016   0.0432848  -0.0777228
  -0.3695164  -0.7609248   0.7889544  -0.1291783   0.0057445  -0.0189611
  -0.4774663   1.2034353   0.5660389  -0.2181467   0.1594831  -0.1859239
   0.0943200   0.3502771   0.0532852   0.0185193  -0.0246620   1.0311862
   0.6483669   1.2354911   0.1295192  -0.5486861  -0.0577354  -0.0425382
   0.8351694   0.5753315   0.2717535   0.1112498   0.5339900  -1.0974405
   0.3934081   0.1787319  -0.1008066   0.3395493   0.3378012   0.0954793
   0.3977725   0.1865785  -0.0955922   0.0128681  -0.2270761   0.2516788
  -0.4270265  -0.4130620   1.7709637   1.1535335   0.0351896  -0.7624690
   0.2678951   0.2357120  -0.1502855  -0.5755004   0.3671283  -0.0540040
   0.1164231   0.7756856   0.0574210   0.2639795  -0.2309900  -0.3203928
  -0.5708049  -1.7268213   0.6988460   0.2174123  -0.1431467  -0.3558828
  -0.0906733  -0.2057437   0.2829782  -0.2580858  -0.0153131  -0.0696375
   0.6357403  -0.0347455  -0.2598864   0.2645789  -0.0454589  -0.0559011
  -0.3561978   0.4325284  -0.8795467  -0.2813826   0.3885069   0.8840444
   0.0380130  -0.2069601   0.2367184  -0.4602696  -0.9532010  -0.0322050
   0.1161821   0.2679498  -0.6080991   0.1057201   0.2323948   0.0456040
   1.0053172   0.4083691  -0.1046493   0.2720497  -0.3766149  -0.1048462
  -0.0890909   0.1617716  -0.5002441   1.3087714   1.6540580  -0.6998374
  -0.9122807  -0.4333150  -0.0872780   0.1335684   0.1389561  -0.1341438
  -0.6899283   0.5671097   0.8352161  -0.6239140  -0.3236134   0.2360406
   0.2109970   0.1670825   0.1261466  -1.3549549  -0.0012990  -0.2865095
   0.3032059  -1.1319637   0.8346712   0.1453122  -0.1230738  -0.0329770
  -0.5195438  -0.1852852  -0.0254637  -0.1220982  -1.1089170   0.0889830
   0.4526195  -0.1882845   0.1396803  -0.7500075   0.0813872   1.5042785
  -0.1979037   0.2564899  -0.2957158  -0.2813105   0.1979850  -0.3030546
  -0.7143634   0.3180266  -0.7057775  -0.6143283  -0.2466218  -0.3817263
  -0.1006433   0.1538674  -0.3825587   0.4819038   0.1161630  -0.5469561
  -0.6187198   0.1746464  -0.2398883   0.2366212  -0.1448251  -0.1996152
  -0.2411308  -0.0620681   0.1466432   0.6608264   0.4769891  -0.1260603
  -0.3558757   0.1177242   0.1492201   0.5670361  -0.4600419  -0.3034911
  -0.3113491   0.1100835  -0.0319012   0.3193868  -0.3238859  -0.4953327
   0.1433053   0.0408870  -0.5041622   1.3185043  -1.6802945  -1.1833199
  -0.1704656  -0.2439852   0.0459619  -0.9739557  -0.2621630   0.1336768
   0.4183165   0.1131716   0.2993117  -0.1726186  -0.1170247  -0.2666366
  -0.1521659  -0.0497132  -0.4836457  -0.5113516  -0.5099203   0.7415141
  -0.1111404   0.0326852  -0.0987860   0.1149153  -0.3053211   0.0404149
   0.3242362  -0.3340458   0.0042911  -0.2623120   0.0805291  -0.1001215
  -0.3381088   0.1932452   0.0286518   0.1114284  -0.3418983  -0.5562157
   0.1682553  -0.2224018  -0.2250276  -0.3970099   0.5454974  -0.8120789
   0.9863212  -0.0690909   1.6910921  -0.1126554  -0.0412264   0.0235837
  -1.3748788   1.1409844   1.5247981   0.5562096   0.8985991  -1.1862832
  -0.2079619   0.2327795   0.0232120  -0.3142012   0.5170961   0.1099490
   0.3606934  -0.3313628  -0.1805092  -0.0870599  -0.0192087   0.0660938
  -0.2990099  -0.1382254  -0.8403669  -1.4028691  -0.8422232  -0.0345681
  -0.2584327  -0.2090138  -0.1442723   0.5050327   0.6482052  -0.4805290
  -1.0360696  -1.3098017   0.2485412   0.0970434   0.0667199   0.3646883
   0.3478129   0.4148342   0.5763270  -0.2767231  -0.5957799  -0.3174308
   0.0538656  -0.2250357   0.1560283   0.5393017  -0.6989365  -1.2947001
   0.3591573  -0.1069262   1.1176869   0.2972979  -0.1319341   0.0962879
  -0.4325681  -0.4425953   0.1273316   0.4777721  -0.3160282  -0.6215862
   0.3940992  -0.0921349   0.0813721   0.3127381  -0.1184430   0.0451027
   0.4319685  -0.0774729   0.1125749  -0.1190750  -0.1098506  -0.1260532
  -0.2681631  -0.6876622  -0.6903012   0.6947251  -0.2136790   0.0318589
  -0.0830882  -0.2213084   0.1934700  -1.0928927  -0.6578873   0.3233535
   0.5183182   1.1030561  -0.1651352  -0.0559071  -0.1542883   0.0930867
  -0.0771031  -0.3883176  -0.8174675   1.0087687  -0.5238653   0.6270433
  -0.2753896  -0.2681358   0.0594314  -0.4963386   0.0842475  -0.0528563
  -0.7790874   0.4724797  -0.1174587   0.2585188  -0.0118777  -0.1188717
   1.0274115   0.0248333  -0.1718709   0.5610735  -0.5401079   0.8351529
  -0.1790399   0.0445723   0.0242682  -0.6682230  -0.4223064   0.5814838
  -0.3780809  -0.2656778  -0.7606174  -0.1082775  -0.1090833   0.1341685
  -0.3170479   0.3372073   0.0284767  -0.5897321   0.3524696   0.8243588
   0.1869554  -0.1952337   0.2040712  -0.5536320   0.8017591   0.4069230
  -1.1118781  -0.2458813  -0.4093938  -0.1675580   0.1699234  -0.1831103
  -0.3709074  -0.3418490  -0.0603327   0.2411981   0.3099065   0.2496514
  -0.2803494  -0.0520203   0.1567018  -0.2106428  -0.5593936  -0.0252240
  -0.4628838   0.1683551   0.2747062  -0.0866593   0.2385647   0.0256611
  -0.7042613   0.3240301   0.0700080   0.7611947  -0.4351465  -0.0268282
   0.3509303  -0.0696816  -0.1930641  -0.0678063  -0.0240980  -0.0567335
   0.6089909  -0.0662619  -0.2285476   0.0678738  -0.0960420   0.0163133
   0.6158519  -0.5845074   0.8458173  -0.1935684   0.2878828  -0.3881486
  -0.0141889   0.1335947  -0.0924310   0.0568320   0.0715432  -0.3478880
  -0.0002924  -0.2339892  -0.0499789  -0.2240682  -0.1389825   0.1637260
  -1.4612246  -0.3628124  -0.2514049   0.1404589   0.6234313   0.2956235
  -0.1027531   0.0953534  -0.0153916   0.7452771  -0.0926012   1.1218078
  -0.1487168   1.6534424   0.9911183   0.0557712  -0.0772573   0.2189358
   0.3744818  -0.4220430  -1.0082244  -0.2810160  -0.4294858   0.1426446
  -0.1133438   0.1401189   0.1609544   0.1755601  -0.5144601  -0.4756265
  -0.5410885   0.5390940   0.8131586  -0.1395983  -0.1034027   0.1406841
   0.2426560   0.0802022   0.2986916  -0.2779991  -0.3265034   0.7430154
  -0.1646763  -0.1578822   0.0884647   0.0994185  -0.8750283   1.8400574
  -0.3600402   0.0682728   0.3793013  -0.3022637   0.1506618  -0.0483610
   0.0942602  -0.1111885  -0.4156768  -0.2428763  -0.0232812   0.1079450
   0.0398065   0.1981829  -0.0646102  -0.3319850  -0.0113120   1.2235077
   0.2162759   0.0754626  -0.2426707  -0.2191136   0.0640945   0.0191770
  -0.6416162  -0.2610305   0.6507915   0.1801462   0.3769284  -0.6122014
   0.0161684   0.1449446  -0.2928750   0.3374354  -0.6803441   0.1329870
  -1.5288594   1.4770733  -0.1282473   0.2030948  -0.1694664   0.2191366
   0.7222401  -0.0930138   0.2916577   0.0823624  -0.2882727   0.1960000
   0.1184254   0.0490198  -0.3240334   0.2417830   0.1824649  -0.1328018
   0.9414067   0.3864080   0.3888883   0.1138115   0.5229736  -0.0481435
  -0.8195309  -0.1608056  -0.5240088   0.1738348   0.0934931  -1.0949728
  -0.2307616   0.0452774   0.1677161   1.0412761   0.9252792  -0.2836919
   0.8453636   0.0603405   0.2916751  -0.1213206   0.0625742   0.0410331
  -0.3241963   0.4603808  -0.7634410  -0.0626181   0.1098441   0.0283910
   0.0885849   0.1211164  -0.0530362  -0.2374289   0.0815576  -0.0013686
   0.2138600  -0.2059725   0.1062829   0.1933993  -0.0005563   0.0802891
   0.1109085   1.0970815  -0.4475084  -1.0482933   0.2304089   0.5647397
  -0.0068140  -0.1880586   0.1776915   0.1824590   0.2294821   0.3497288
   0.4797105   0.7708141   0.5878272  -0.1954429  -0.4078599  -0.0421068
   0.2148637  -0.4028237  -0.2100855  -0.0953336  -0.5355713  -0.1449183
  -0.5092502  -0.1221251  -0.0082636   0.5129659   0.4216917  -0.6819993
  -0.2332988  -0.2581746  -0.0850991  -0.3270686   0.1831334   0.1330547
  -0.5184745  -0.8820210  -0.8251111  -0.4221277   0.7407891   0.6828660
   0.1201588   0.3539936  -0.5237940   0.3801707   0.2783416  -0.5513520
   0.7119832   0.3832018  -0.6641491   0.2059813   0.1256215  -0.2877458
   0.1893112   0.5808566   0.2585053  -0.3033690   0.0853895   0.6134733
  -0.0715342  -0.2080252  -0.0359044  -0.7465814  -1.8385606  -0.4055216
  -0.2290328  -0.5910278  -0.1217740  -0.0590507   0.0176295   0.3692619
  -0.5023686  -0.1998825  -0.3564921   0.1121219   0.1486940   0.3791204
  -0.0994899  -0.3790579   0.3605647   0.3276933   0.3103465  -0.3578727
   0.1015283  -0.6299808   0.1111285  -0.0032442  -0.2196349  -0.0147092
   0.2825756  -0.6004326   0.3903870  -0.3805494   0.1994233  -0.2501638
  -0.1997755   0.0895946   0.0462736   0.3178984  -0.4567662  -0.6657150
  -0.5913843  -0.5061464  -0.0041371   0.2323637   0.1984813   0.1050774
  -0.8120882   0.5714396  -0.4624704  -0.2602100   0.2525464  -0.3832173
  -0.0024914   0.0871430  -0.2968722  -0.2272860  -0.4364643   0.0484745
   0.3502197  -0.4587891  -1.1768403   0.1445425  -0.1481292   0.1371853
   0.7884560  -0.0930636   0.4292997  -0.3401840   0.0652465   0.5689040
   0.2966197   0.1329309  -0.0685567   0.1102666   0.1256590   0.5007791
   0.3791464   0.4520608  -0.3666136   0.2521728  -0.0190578  -0.2420384
   0.1933182  -0.8204218  -0.4859779   0.0033451  -0.6065719   0.3094012
  -0.3336588  -0.1500015  -0.1358786  -0.3482929   0.5152250  -0.7455338
  -0.4747121  -0.5707723  -0.6431477  -0.1185979   0.1875329  -0.2209002
   0.1765585   0.2989270  -0.3019893  -0.4966490  -0.5299809   0.2549361
   0.0128339   0.0054585  -0.1727953  -0.3405194   0.3980095   1.4032256
  -0.2547591  -0.1124760   0.8242017  -0.1180776   0.3646650  -0.0716882
  -0.4120471   0.0202077  -0.1563651  -0.4680973   0.1029951  -0.0086281
  -0.2110066   0.1869003  -0.1900558  -0.0569547   0.4217593   0.2152638
  -0.0817536   0.4240974   0.1564915  -0.1699287  -0.5059759  -0.0053522
   0.4299878  -0.3915629  -1.0464111  -0.3844910   0.1105805   0.5042942
  -0.0712032   0.0186619   0.0275410   1.4642106  -0.9037465  -1.1404321
   0.0166334  -0.2992272  -0.2463638  -0.0728350  -0.2034070   0.2852562
  -0.2680285  -0.2624633  -0.1879092   0.3429217  -0.4448674   0.9503690
  -0.1378349  -0.1584566  -0.2301126  -0.7242741   0.2621307  -0.9671425
   0.5070306   0.5048978   0.3188496   0.0821056  -0.4422037  -0.2535649
  -0.1534923  -0.4396146  -0.1329623   0.2306727  -0.4557906  -0.1088991
   0.2397053  -0.0990167  -0.0362041   1.2331669  -0.5384836   1.0025026
  -0.0678906   1.1579309  -0.3622096  -0.3116024   0.2612517   0.0882480
   1.2948832   1.1730332   0.4653683  -0.5138337   0.1409934   0.0653307
  -0.1436939  -0.0828892   0.0560963   0.3298616  -0.1275554  -0.1866509
   0.1543955  -0.2839282  -0.1811514  -0.0424703  -0.1036922   0.2764918
   0.0359606  -0.5259278   0.0772187  -0.5943807   0.2015092   0.7404344
  -0.1599334  -0.0122807   0.2037440  -0.4562641  -0.3154134  -0.2990325
  -0.0714108   0.0451421   0.3312957   0.1876944   0.0376583  -0.2010806
   0.5206214   0.0116486  -0.5658703  -0.2530964   0.0084707  -0.3728059
  -0.1991838  -0.2970177   0.1726810  -0.4496747   0.7856469   0.8469905
  -0.6290173  -0.5839054   0.2607860   0.1857827   0.0817268  -0.0618495
   0.9291402  -0.0054594  -0.6303019  -0.8423318   0.1596780   0.1897804
  -0.2386317   0.0484601   0.1042541  -0.6799016   0.2720987   0.2579500
   0.1259074   0.0238963   0.2015179   0.0612148  -0.2127308   0.1322666
  -0.2731966   1.6928231   0.1996810  -0.7662240   0.5053884  -0.2128372
  -0.1669580  -0.1757826   0.0898940  -0.5062185   0.1416054  -0.0243002
   1.0371649  -0.3648759   0.1020696   0.3182299   0.0015465  -0.2292409
   0.5060919  -0.3864507  -0.3289279   0.0512811  -0.0726375  -0.0263434
   0.3704940  -0.0913269  -0.1241002  -1.1265111   0.6411120   0.7385605
   0.8808861  -0.4178083  -0.8102555  -0.1841465  -0.1197864   0.6390336
  -0.0527973   0.4186316  -0.2152557  -0.2248129  -0.0000429  -0.0996325
  -0.2847357  -0.0350691   0.1844640  -0.3769531   0.0744779   0.3203939
  -0.0320003   0.2849529  -0.3440513   0.1672437  -0.1768711   0.3229189
   0.5109366  -0.6964891  -0.2023320  -0.5832047  -0.1780824   0.1695766
   0.2711495   0.0121460   0.3791180   0.0146894  -0.4603004  -0.4547243
   0.8418387   0.3389878   0.3884578   0.1856983   0.1942931   0.1512773
  -0.0435236   0.1817728  -0.0699641  -0.4700076  -0.0964611  -0.1386978
  -0.0244315   0.0408409   0.0130581  -0.8604174   0.7682876   0.1869190
   0.2668423   1.2705646   0.7162877  -0.0183049   0.0376800   0.1650359
   0.2872012  -0.1502911   0.2074980   1.0422202  -0.6604922   0.2490181
   0.3842276   0.2237092  -0.1970016   0.9776414   0.2969516   0.2936600
   0.0975329  -0.1341414   0.1302699  -0.0098762   0.0341226  -0.2339845
  -0.1145270   0.1493300   0.2756801   0.0217460  -0.0051599   0.0064240
  -0.0660964   0.0520186   0.0257479  -0.8234607   0.5323777   0.7340078
   0.1032799  -0.1819204   0.6563876  -0.0047807   0.1767669  -0.4351289
   0.2152894  -0.1329559  -0.2527282   0.6063575  -0.9415456   0.2734944
   0.3863620  -0.3203884   0.0437608   0.0845160  -0.7396851   0.5741782
   0.6566147   0.5279718  -0.5196821   0.0069825  -0.0056716  -0.2143937
   0.4294436  -0.0137528  -0.8920386   0.2707826  -0.7861570  -0.3931330
   0.0697314  -0.5594371  -0.1422070   0.2199913  -0.6828645   0.3271665
   0.9137962  -1.4135038   0.3491294   0.0982493  -0.0143736  -0.0902683
   0.3805425   0.4652856  -0.7494846  -0.4749183  -0.6194012   0.7085245
  -0.1166717   0.1348491  -0.0049161  -0.3532073  -0.8711384   0.7538051
   0.1311329  -0.2070251  -0.1269684   0.1270378   0.1100636   0.2310585
  -0.1668268   0.0438922  -0.3529015   0.1725440   0.2051924   0.4101175
  -0.3174527   0.0793638  -0.2433660  -0.1529935   0.1426184   0.4371071
   0.1699760   0.4907343  -0.6747892   0.0124016   0.7056042  -0.0862591
   0.9907633  -0.0051175  -0.5810002   1.0848561   0.0844246   0.1881163
   0.0767097  -0.0129138   0.3665766   0.4718706  -0.3367153  -0.0912348
   0.2160687  -0.1366783   0.3123737   0.2694668  -0.0314513   0.1954418
   1.1873899   1.0039305   0.0709155  -0.6858775  -0.0226495  -0.7191682
  -0.3517584   0.2013987   0.0421123  -0.5615807   0.5359130   0.0633989
  -0.1156008  -1.0038172  -0.3219542  -0.0515398  -0.0003218  -0.0285302
   0.1149524   0.2260501   0.5714455  -0.2682222   0.0651394   0.4856764
  -0.2205390  -0.1703888   0.1086868   0.1696009  -0.4499479   0.5522018
   0.2552832   0.6295828  -0.0972461  -0.1834364  -0.0607271   0.0831253
  -0.3012126   0.0412249  -0.1045911   0.1305943  -0.4257891  -0.1496839
  -0.3612832  -0.1951185  -0.0859547  -0.1526654  -0.1378603  -0.0851749
   0.3453725  -0.9775549   0.1493244   0.2873388   0.2963714   0.1071653
   0.8845397   0.2030201   0.6315711  -0.4095949  -0.2532232  -0.1337705
  -0.0919955  -0.0326524   0.4623729  -0.2264272  -1.2190288   0.2022812
   0.1285542   0.3738483   0.5389112  -0.0213206  -0.0525762   0.2000042
   0.3603732  -0.6146963   0.2545594   1.1539374  -1.7999400   0.3695043
   0.0720237  -0.1367909  -0.3074955   0.4575780   0.5928827  -0.2060277
   0.1293492  -0.0519447  -0.3004029  -0.0184967   0.1873405   0.0939675
   0.5933335  -0.6257163  -0.3416611   0.2831350  -0.2876746   0.0984533
   0.2245955   0.1689262   0.1916260  -0.2857715  -1.4500786  -0.4221608
   0.5418754   0.2711013  -0.1132252   0.1261989   0.1033624   0.1561598
  -0.0130943   0.4149749  -0.2972611   0.1269749   0.0648703  -1.4254496
  -0.0446852  -0.0820884  -0.2773773   0.0694957  -0.1411294   0.8317363
  -0.2162409  -0.7435808  -1.2210426  -0.0694382  -0.1365684   0.0515219
   0.2295199   0.0846091  -0.1157359  -0.3309526  -0.3382627   0.1382684
  -0.0547348   0.0085431   0.1580041   0.1142515   0.1421435   0.4070839
  -0.3005350  -0.8346360  -0.0446216  -0.0094262  -0.3178698  -0.1095218
  -0.2224700  -0.3236877   0.0629563   0.0618391  -0.6867035  -0.0401767
  -0.0873065   0.0565624  -0.1316209   0.0584396  -0.0013943  -0.6036659
  -0.1951390   0.0338322   0.0050084   0.0750987  -0.2682982   0.0180555
  -0.6767377   0.3226049  -0.5021371   0.4457629  -0.4464188   0.1053959
   0.1872864   0.0000271  -0.3368153  -0.7419321   0.1037642   0.1297377
  -0.5896394   0.5662877   0.4258625  -0.2447220   0.0935335   0.0466842
   0.1356015   0.6526671   0.6526046  -0.5719002   0.8252273  -0.8713844
  -0.1733740   0.0321151   0.3891128   0.1429856   0.1563202   0.1560346
  -0.5563660  -0.3470452   0.6752851   0.0712866   0.2771379   0.0754633
   0.1266388  -0.4798789  -0.4508619   0.1732969   0.0059248  -0.6364041
  -0.1465420   0.2178021   0.2584709  -1.1174487  -0.2448132   0.9407361
  -0.1966690  -0.5271576  -0.7657119   0.0250118   0.0138065   0.0765828
  -0.4535120   0.4094995   0.5136915  -0.0846052   0.6203891   0.3521507
   0.0669645   0.3507075   0.0157129  -0.6209024   0.2598845  -0.2934697
   0.0709725   0.6944228   0.4051218   0.2381502  -0.1052545  -0.1722945
   0.5477351   0.2016592  -0.4933959   0.8594644   0.7206657   0.1050086
   0.3092039  -0.0657565  -0.1363225   0.9368911   0.4810173   0.2657233
  -0.2158818  -0.0877710  -0.9088128   0.0494774   0.0844704   0.1646961
   0.1498550  -0.3104977   0.0722452  -0.0650420   0.1948038   1.0620265
  -0.0196074   0.1425779  -0.2708582  -0.8834192   0.4566076  -0.2393690
  -0.2047245  -0.5442900  -1.4991577   0.1907495  -0.1632375   0.1888397
   0.1078249  -0.1290417   0.5478756   0.6649847   0.0521584   0.1129059
  -0.0202401   0.1044185  -0.0209914   0.3687230   1.5623416  -0.7523821
  -0.3580706   0.0649107   0.2600565  -0.0451478   0.2191808  -0.3679314
  -0.2895913   0.2364342  -0.2262589   0.1775216   0.6844859  -0.3763953
   0.0392800   0.2226855  -0.2263198  -0.8217061  -1.4621013  -0.3955246
   0.6411618  -1.3048715   0.7479697   0.3112517   0.1970434   0.0439997
   0.5433779  -0.3083358  -0.4300321   0.9835683   0.3532987  -0.3537831
   0.1898087   0.0285736   0.0208520  -0.3612128  -0.1886258   0.5273062
  -0.0730526  -0.5336187   0.9889121  -0.0800980   0.0429729  -0.0146016
   0.1073994   0.0202222  -1.3755595   1.0610811  -0.1128132  -0.7105664
  -0.1424920   0.2808181   0.2916623  -0.4222295   0.9341413   0.3297645
  -0.3877376  -0.0277826  -0.1668548  -0.1027490   0.0781990  -0.3117644
   0.3984494  -0.6551205  -0.4727485  -0.9964957   0.1633956   1.0881989
  -0.1217543  -0.4800634   0.2880459  -0.2711952  -0.1443619  -0.1284729
  -0.1319775  -0.4839083  -0.8532458  -0.1081546   0.1640495   0.1811596
  -0.7075709  -0.9914134   0.0303867  -0.9930899   0.2877058   0.1442975
   0.1910158   0.2263145  -0.0454240   0.3714211   0.2939391   0.1579962
   0.3582193   0.2469703  -0.2726067   0.0373318   0.1656522  -0.1569909
   0.5645642   0.0191009   0.0419006   0.0169976   0.1903394  -0.3781144
   0.1574538  -0.1576922  -0.0526456  -0.1520884   0.4177959  -0.5260919
  -0.5442378  -0.4141947  -0.2705006  -0.0904494  -0.3522779  -0.0046368
   0.2558436  -0.3074033   0.1110083  -0.9026879  -0.0457705   0.0014536
  -0.1888960   0.2087875  -0.2151615   0.7516507   0.4440305   0.5633475
  -0.5088543  -0.5977697  -0.4904491   0.0332971  -0.0655252   0.0456431
   0.0571482  -0.2351232  -0.0823642   0.1868197  -0.3974183  -0.6068729
   0.4100918  -0.0264486   0.0118315  -1.8170636   1.5358790  -0.3143293
  -0.1219005   0.3369806  -0.0606739   0.2993874  -0.0720879  -0.1142377
   0.6875680   0.1991378   0.4114063  -0.4175065  -0.0933329   0.0577089
  -0.2638125  -0.1280779   0.0831428  -0.0025191  -0.9861796   1.0352205
   1.0463922   0.0338426  -1.8667345   0.1704147   0.1072221   0.1198838
  -1.1996066   0.3083929  -0.2605253   0.7568803   0.6015503   0.0041581
  -0.0262333   0.0504890   0.0597004  -0.3698922   0.3565819   0.6783568
   0.2250505  -0.2865097  -0.2636672  -0.0401935   0.1019322   0.0574506
  -0.1223873   0.3154448  -0.0176172  -0.2141235   0.2474381  -0.0470171
  -0.1160095  -0.1077170  -0.1513533  -0.2146504  -0.2548878  -0.6062354
  -0.8164569  -0.6994158  -0.2969842  -0.2489951   0.1082672   0.0378278
   0.1196708   0.3650257  -0.4474605  -0.4059404  -0.6310417  -1.0430826
  -0.2455155   0.1349121  -0.1344456  -0.1868875   0.2195879  -0.6437211
   0.2927864  -0.1560964   0.1468382  -0.1734621   0.0974493   0.0341711
  -0.5417141   0.2216497   1.0712014   0.2436339  -0.8379803  -0.0986997
  -0.0907085   0.0043822   0.2929512  -0.0375726   0.2002799  -0.0381353
  -0.1543573   0.2208480  -0.4022119   0.0068137   0.1468966   0.3358110
  -0.3045114  -0.0923964  -0.2717971  -0.5521867   0.0314933  -0.4812734
  -0.0648633   0.1277574   0.1675340   0.4262002  -0.8934571   1.6697708
  -0.0216958   0.2399593  -1.4533088  -0.0834372   0.0445980  -0.0026128
   0.5931645   0.8718391  -0.2126930  -0.3058938  -0.8850026  -0.3494053
  -0.0523315  -0.1791691   0.0154635   1.1300276  -0.4113007  -0.4377211
   0.5274590  -0.4307390   1.0233862  -0.1708235  -0.0184616  -0.1790720
  -0.2280334   0.7650313  -0.3560677   0.3917420   0.0735863  -0.2111567
   0.2075437   0.3030183   0.1738459   0.7220781   1.1863436  -0.1563562
   1.0748461   0.3028765  -0.0114617   0.1633246  -0.0079978   0.0120569
   0.2491240  -0.2283002   0.0281572   0.2823825   0.0875706   0.1686264
   0.0730134   0.2273168   0.1345746   0.3823672  -1.4344578   0.2658093
   0.7606885   0.2404204   1.7797785   0.0606692  -0.2676772   0.2177542
  -0.9998582  -0.5580282   0.4549748   0.4504857   0.1407947   1.3291525
   0.0301639   0.1714710   0.3529251  -0.0418877  -0.0922263   0.3310784
  -0.0266881  -0.2204073   0.1355358  -0.0831655  -0.0629712   0.1158813
  -0.1277779   0.1014472  -0.5291307  -0.1894545  -0.0810982   0.8375559
  -0.1130073   0.1631789  -0.1643662  -1.1182222   0.1633402  -0.1146855
  -0.5486314   0.1148991   0.3009294   0.2400938  -0.0919997  -0.0589602
  -0.8862751  -0.0344666  -0.0358567   0.3177884   0.1779380  -0.0179202
   0.0282937  -0.0489234   0.0880681   0.5850420   0.5348763   0.7680294
   0.6997210  -0.6222283   0.1533621  -0.0422306  -0.0819603   0.0407496
   0.0907923   0.5512535  -0.1830849  -0.4616456  -0.0855877  -0.2372679
  -0.1118729   0.0136628  -0.1155278  -0.1076367   1.6043899  -0.6764204
  -0.8394840  -0.3329277  -0.7927824  -0.1257010  -0.1905834   0.0911346
   0.6989758  -0.6353048  -0.4002288  -0.4767208  -0.0418112   0.5328768
   0.0453951   0.2966612  -0.1387643  -0.2968095  -0.2641801   0.1992099
   0.3735622   0.7634746  -0.0592969  -0.0775505  -0.2075647   0.0857830
  -0.2579044  -0.3233425   0.1792551   0.1203569  -0.2144823  -0.6352949
  -0.0408427   0.0996746  -0.1796163   0.3756526   1.0157496  -0.4921971
  -0.9968763   0.4632661  -0.7140589   0.0483494   0.0794457   0.0770970
  -0.7061663  -0.2398272   0.3719587  -0.0494775   0.8616681   0.4040826
  -0.0855960   0.2333205   0.1489158   0.1642008  -0.3855623   0.4460551
  -0.1998646   0.4715427  -0.0090130  -0.1324401   0.1752783  -0.1561038
   0.7021047   0.4249097   0.1163359  -0.7660536   0.0265825  -0.4279518
  -0.3867344  -0.0983276  -0.0048303  -1.2637619  -1.2382707   1.1205844
  -0.4228924  -0.0646412   0.2980776  -0.0185843  -0.0688514   0.0343522
  -0.2201086   1.1552284   0.3892648  -0.9284539   0.1952598  -0.3178603
   0.1752165   0.0704949   0.1249076  -0.0169617   0.1142425   0.5251468
  -0.3939172  -0.3325350  -0.0025708  -0.6804705   0.0228788   0.1872745
  -0.3626183   0.3192071   0.4155407  -0.0805161   0.4817517   0.4697587
  -0.2650212   0.0402492   0.3492325  -0.0803000   0.2433228  -1.0059295
  -0.9095027  -1.1226621   0.2297428  -0.2821698  -0.3266643   0.3153380
  -0.9352181   1.0166256   0.6647738  -0.7743370  -1.1856171   0.0401080
   0.1779115  -0.0395628  -0.4001242   0.2348008  -0.1492528   0.1879350
   0.3119660   0.0707251  -0.4789431   0.1138497  -0.1414965  -0.1510155
   0.1667915   0.1671964   0.4988502   0.1804372  -0.2956305  -0.7545355
  -0.1440337   0.1479606  -0.1996933  -0.2817199   0.0030236   1.1670448
  -0.1275189   0.9328839  -0.0783086   0.0520155   0.1206651  -0.1094655
   0.3616427  -0.1018227  -0.0540154  -1.0329215  -1.5674254  -0.5977895
  -0.0449337  -0.2181189  -0.2363835   0.5232611  -0.7211963   0.5217043
  -0.1549340  -0.0779236  -0.3851937   0.1525165  -0.0472323   0.2229577
   0.3783943   0.8943298   0.4046664  -0.6147497  -0.3310678  -0.4061779
   0.2597698   0.1841639   0.1025865   1.2025278   0.1201961   0.2961023
  -0.2661836  -1.3453183  -1.2367829   0.2539647  -0.0410670  -0.2390939
   0.7114757  -0.2080277   0.4513964  -0.0735409   0.6135170  -0.2141595
   0.1968983   0.0946530   0.0626477  -0.7161406   0.5335870  -0.1227629
   0.5234572  -0.0863802   0.1790609   0.0527328  -0.0393482   0.1206986
  -0.0592821   0.1942084  -0.1633927   0.8947402   0.0932533   0.9356569
  -0.0519619  -0.0592892   0.2019292   0.4529297  -0.2138528   0.2993816
  -0.3245612  -0.3073797   1.1659969  -0.3140644   0.4562380   0.0405727
   1.6170689   0.8539121  -0.4238378  -0.0412813   0.7290659   0.2779235
  -0.0127847   0.0263430  -0.3326723  -0.4962169   0.3443684  -0.4798665
  -0.0205783  -0.1849302   0.3213607   0.2272795  -0.1914526   0.1332055
  -0.7109312  -0.2215111   0.5755228   0.2449078   0.2983754   0.1778971
   0.1233559  -0.1592062  -0.2737707   0.8043817   0.3751789  -0.7128139
  -0.3828561  -0.5984130   0.0781186   0.0367667  -0.2122561  -0.2284877
  -1.3642884  -0.6023820  -1.0029490   0.4377709  -0.1652562   0.1809523
  -0.0099855   0.2018764  -0.2604242   1.2739104   0.2886408  -0.4311899
   0.5863952  -0.9997401  -0.0955560  -0.1444566   0.1891596   0.2281084
  -0.0406091   0.5359640  -0.5535034   0.0072751  -0.2711252   0.3141915
  -0.1410883   0.1278802   0.2523926   0.5413313   0.9720600   0.3499066
   0.4719204   0.5723308  -0.0377136   0.2181138   0.0620573  -0.1690790
   0.0395883   0.2917241  -0.0219808   0.1947431  -0.5736383   0.3200227
  -0.0922461  -0.2538478   0.1957350  -0.6493733   0.0731857  -0.8319827
   0.2001818  -0.1262538  -1.2110263  -0.1584270   0.1708371  -0.0784095
   0.0485812   0.2242550   1.5945554  -0.2000979  -0.5344918  -0.3749480
  -0.1383949  -0.1834194   0.2095832  -0.3775819   0.1287456  -0.3077390
  -0.4418677  -0.8034965   0.0457821  -0.0808644  -0.1210176  -0.2434107
   0.4918584  -0.4063429  -0.5019740   0.1717212   0.1575253   0.7012649
  -0.2536727   0.2293744  -0.1517663   1.0674601  -0.1353332  -0.3824721
   0.4123061   0.5705539  -0.6773679  -0.3072359   0.1390128   0.1019423
  -0.0616226  -0.3530482   0.5952334  -0.8018575   0.2593930   0.1195364
  -0.0766915  -0.1042098   0.1393875  -0.4926568   1.0028494  -0.4155634
   0.7238539   0.2400241   1.4298088   0.1352124   0.0021286   0.2224551
   0.5196884  -0.5161471  -0.0678975   0.6699376   0.3223167   0.7072406
   0.1259820   0.1422910  -0.0700029   0.3879259   0.0020536   0.9434400
   0.1329025   0.1892727  -0.0687924   0.0455025   0.1905933  -0.1305627
   0.6292307   0.2841653   0.4737409  -0.1113084   0.2099698  -0.3245628
  -0.0681553   0.1265766  -0.2777569   0.6688504  -0.2113991  -0.0627457
  -0.2829638  -0.0398214  -0.9566646  -0.2149216   0.2756032  -0.0356163
   0.6530583   0.1204394  -1.0004663  -0.1705172  -1.0226221   0.9308108
  -0.1155753  -0.2096819  -0.1000196  -0.1408353  -0.2481839  -0.0795985
   0.7453163  -0.1121963  -0.1216334   0.0129410  -0.0982615  -0.1200681
  -0.2794725  -0.4483947  -0.0013381   0.6716966  -0.2155345  -0.0680269
  -0.2346241  -0.1701970   0.0812510  -0.8594263  -0.9255201  -0.0776514
  -0.8342354  -0.8395973  -0.1043380   0.0603942   0.2800472   0.1969162
  -0.2366957   0.4512382   0.3828876   0.9484972  -0.8606419  -0.3642313
  -0.0025805   0.0372684  -0.0888120   1.2464918   0.0115488  -0.4587275
  -0.2707731  -0.2807444  -0.7911451   0.2066084   0.1515488   0.0117196
  -0.0731157  -0.5397855  -0.4455081   1.3147204   0.0130637  -1.0314539
   0.2334183  -0.0309787  -0.1687689   1.5325235   0.5524576  -0.6808358
  -0.9827765  -1.6283220   0.0653762   0.2724507  -0.2547305  -0.2268212
   1.1585495  -0.3401506  -0.8236657  -0.6026522  -0.5460980  -0.7647810
  -0.0553616   0.1478389  -0.0036594   0.4502787  -0.0851860   0.6900678
  -0.3248084   0.4766855  -0.3155868  -0.0623087  -0.1649768   0.0530939
   0.0482041   0.1878214   0.2983813   1.1074379  -0.4342366   0.3420163
  -0.0127033   0.0108062   0.0701219  -0.2522888  -0.0123762  -0.1814935
   0.7339298  -0.0306046   0.8284908  -0.4106246   0.1911096   0.2568252
   0.3714752   0.7898655  -1.3857115  -0.2906645   0.3051023   0.0786702
   0.1723821  -0.6117566   0.0557661   0.1203441  -0.0451591   0.7046235
   0.3684630  -0.1058960  -0.6248495  -0.1430563   0.0304844   0.4147789
   0.2420411   0.0551404   0.3584225  -0.5767500  -0.0541435   0.4068505
  -0.2137192  -0.2432159   0.5173263  -0.8528301   0.7590684   0.5770990
   0.2944124  -0.5834115   0.2993787   0.1602115  -0.0104785  -0.1891723
   0.3585146  -0.0190302  -0.2234434   0.3329171  -0.9102249  -0.1776661
  -0.0538123  -0.3800629   0.1684113  -0.7155124  -0.2525589   0.7724422
   0.3612334  -0.5519492  -0.4004806   0.1480160   0.0673542   0.0694518
   0.1195451   0.1798435   0.2705603   0.3048802  -0.8072528  -0.0386378
   0.0034352  -0.3328329   0.1758070  -0.5207662   0.1243393   0.3987779
   0.0457108  -0.7238105  -0.6514004   0.0107410   0.0220601   0.2506955
   1.1514156   1.1387335  -0.0855297  -0.0144125  -0.8167064  -0.8784548
  -0.1639151   0.1538086   0.0840853  -0.5661308  -0.0364816   0.2499398
   0.2621885   0.3655136  -0.1448061  -0.1266756   0.3055975  -0.2600007
  -0.6500345   1.8391040  -0.4138388  -0.3552935  -0.6515665  -0.4824160
  -0.1406674  -0.0637625  -0.2096980   0.5805830   0.0076655   0.7423396
   0.1535793  -1.0637766   0.5103912   0.0030748  -0.2429208  -0.0994207
   0.1991895  -0.4852049  -0.2070174  -0.0922204  -0.0464304  -0.1965027
  -0.0327725   0.0889107  -0.0837453  -0.0908249  -0.0879896  -0.1678272
  -0.5009549  -1.6471269  -0.6986383   0.0410552   0.2461550   0.1481688
  -0.1975687   0.7243631   0.4454966  -0.6659181  -0.0299871  -0.2096396
  -0.1383097  -0.0072729  -0.0252163  -0.8860387  -0.1339405  -0.3468233
  -0.4516991   0.5602239  -0.3996082  -0.1769257  -0.0860303   0.3614325
  -0.2712784  -0.5523194   0.1676511  -0.1272415   0.3132104   0.7620626
   0.1656268   0.0413685  -0.0409723  -0.5072602   0.5589289   0.0701268
   0.0345731  -0.6016664   0.4992434  -0.1296881   0.0552369   0.0031254
  -0.4822691   0.3726462  -0.4059655   0.6864928  -0.8348587   1.1024840
  -0.1468981  -0.0348803  -0.1861291   0.3166625  -0.4393554   0.2938025
   0.3672455  -1.3510164  -0.6663343   0.0184844   0.1509809  -0.3448559
   0.3809905   0.4086819   0.1709800  -0.3344840   0.0920613  -0.3070840
  -0.0498897   0.0589271   0.1684572   0.8390262  -0.0337892  -0.1670645
  -0.0869637  -0.5480005   1.0354871   0.2395318   0.1438438  -0.0780256
   0.3544424  -0.4448267  -0.5772558  -0.0478870  -0.2574306   0.5579531
  -0.1140941  -0.0788049  -0.1687881  -0.4676334  -0.9776042  -1.0978252
   0.9931579  -0.4494671   0.5585158   0.0355635  -0.1457854   0.2151575
  -0.2833077   0.1271146  -0.3884281  -0.5197660  -0.1522613   1.3348425
   0.1022573  -0.3428866   0.1725048   0.2693850  -0.3037170  -0.0408118
   0.5307414   0.6465848  -0.3569697   0.0011916  -0.1474291   0.1443389
   0.4993068  -0.1512314  -0.1311487  -1.1304603   0.5842506  -0.0827076
   0.1805632  -0.1897442   0.0624200   0.2622398  -1.1960596  -0.9579340
  -0.0958887   0.8468022   0.2001143   0.0753831   0.2375463  -0.1810181
  -0.1600333   0.1745841   0.2848312  -1.7330439  -0.2722240   0.9917604
  -0.2288650  -0.0645604  -0.3645132  -0.5191976  -0.4240439  -0.0097231
   0.1074316   0.1354638  -0.0120924   0.0860222   0.1720335   0.0003701
  -0.2101446   0.4274040  -0.2351261   0.5100589  -0.1486478   1.0542517
  -0.0365102  -0.2601539  -0.3296917   0.0029114   0.2585392   0.1173927
   0.5667831  -0.5681983  -0.2972933   0.1036049   0.3480922   0.0410350
   0.6294565   0.0599206  -0.3454249   0.4330460   0.6374008   0.1574021
   0.1291134  -0.2489639  -0.2438915  -0.5300538   0.3377538   0.2194058
  -0.3812526  -0.3598656   0.3931643  -0.1688459   0.1285855   0.0942840
  -0.1097267  -1.4285172  -1.6139243   0.6287005   0.0583973  -1.2026622
  -0.0480751   0.1632096  -0.1491775   0.1132118  -0.1138185   0.2588842
   0.6559542   0.4952154   0.3655482  -0.2793700   0.2812757   0.0356078
  -0.9021840   0.4135370  -0.0820674   0.4116449   0.3018882  -0.3086285
   0.0767336  -0.0700536   0.0761370   0.4858992  -0.2277989  -0.2000963
  -0.0001970  -0.5238903   0.2687722   0.3919264  -0.4291598  -0.1882895
  -0.1325259  -0.2081307   0.5536818  -0.2778624   0.7098129  -0.2515611
  -0.0677421  -0.0721818   0.0504491   1.1419756   0.2113216  -0.1000956
   0.1698703  -0.0192562  -0.1260463   0.0710703  -0.0899545   0.3322889
  -0.7325693   0.6675510   0.9353053   0.3669664  -0.5097544  -0.3450777
   0.3371937   0.0051813  -0.1387025  -0.2098259   0.3755489   0.2331615
  -1.3763020   0.2575036   0.4703737  -0.0402800  -0.1553287   0.0324324
  -0.1210142  -0.5519713  -0.3491005  -0.2056046   0.1942843  -0.8982531
  -0.0084840   0.1768405  -0.0333466   0.9409631  -0.1911336   0.2492493
  -0.6799901  -0.9415156  -0.1618962   0.0572961   0.2455137   0.0947411
   0.0303106   0.1832535   0.1113017   0.3017739   0.0253946   0.1003880
   0.0645638  -0.1398051  -0.0097731  -0.1173205  -0.2632728   0.4892779
   0.4212074   0.0040891  -0.0694977  -0.1351640   0.1690813  -0.4068411
  -0.0101365   0.3853921  -0.4397823  -0.3954967   0.1047981  -0.2538512
   0.2602229   0.0532606  -0.0044615  -0.7982930  -0.1912942  -0.0992739
   0.6203984   0.1581395   0.0595659  -0.0947551   0.1773507   0.0114446
  -0.6195600  -0.0800677  -0.0697501   0.7348424   0.4024388   0.3384738
  -0.2232015  -0.2501979  -0.3166323   0.5124565  -0.7215212   0.9438159
   0.5999047  -1.0067770   0.6612183   0.0680991   0.1097096  -0.1548752
   0.5188423   0.0583390   0.1473444  -0.2686784  -0.0523151   0.0975142
  -0.1563876   0.0241672  -0.0411176  -0.1064166  -0.3566809  -0.0763605
   0.1959345  -0.2795921   0.1332897   0.1403266  -0.0166336  -0.0548422
   0.3167731  -0.2875264   0.2882594  -0.1970614   0.4750462  -0.6464481
   0.0241503   0.0863661   0.4723382   0.3864553   0.8990381   1.1910732
   1.3349737   0.2271123  -0.4722757  -0.1368886   0.2002307   0.2946539
   0.0028092   0.1571168   0.1922621  -0.5198644  -0.2342675   0.8104081
  -0.0748641  -0.0668723  -0.1350000  -0.3894829   0.0954344   0.3565727
   0.2191096   0.0585053   0.0916237  -0.0642688   0.2226648   0.1311700
  -0.3964234   0.6234400   0.0935975  -0.5450687  -0.5163015  -0.5866857
  -0.0762838   0.1433027   0.0580426  -0.1948493  -0.1842588   0.3150210
   0.2928833   0.7172611   1.9039752  -0.2034247   0.0532647  -0.0136674
   1.0299978   0.4181318   0.2067865  -0.5619051  -0.1580826   0.3914364
  -0.0029806   0.0875270  -0.3911490  -0.1722037  -0.1420563   0.0006476
  -0.7442639  -0.6737600  -0.9334459   0.1243539  -0.0838198   0.1418008
   0.4033206  -0.3587833   0.5066267   0.3364492  -1.1576348  -0.3849028
   0.3760076   0.2628427   0.0025989   0.3398040   0.1351590   0.3910892
   0.4508309   0.1604731  -0.7892312  -0.2842789  -0.0921800   0.0164274
   0.0780030   0.0950564  -0.9216388  -0.5910407  -0.1776133   0.5530478
  -0.3784277  -0.1761983  -0.3171149  -0.2398557   0.3171339   0.1754118
   0.2808692  -0.0822260  -0.5889450  -0.0738187  -0.4418200   0.0246917
  -0.4898831   0.5752770   0.7696328  -0.3940983   0.0604946   0.3826359
   0.0238547   0.2893078   0.1107898   0.2134773   1.2555447   0.4228980
   0.1575518   0.2725304  -0.8111054   0.4086307  -0.0888964   0.0395952
   0.0086297   0.5560004   0.0269148   0.2242340  -0.7558077   0.1568290
   0.2810726   0.1973559   0.0797197   0.3862760  -1.0450102   0.1052511
   0.5614861  -1.1001953  -0.8960999  -0.2518532  -0.2554132   0.3438956
  -0.4702260  -0.4444410  -0.1297727   0.2973252  -0.0607347   0.1206546
   0.2652879  -0.0981636  -0.2753703   0.9154793  -0.6782239  -0.1435964
   0.0210916  -0.0535152  -0.0909245   0.2770844   0.1348732  -0.2068487
  -1.3114635  -0.4688392   0.5342692  -1.2795678   0.4035386  -1.4202999
  -0.0926260  -0.0997602   0.0272428  -0.2123230  -0.7112087  -0.7111887
  -0.3730277  -0.6840543  -0.8552411  -0.2335961  -0.0189535   0.0463044
   0.3021515   0.3273760  -0.2397142  -0.0874448   0.2848262   0.4295374
  -0.0072714   0.0767498   0.4777164  -0.7570360  -0.3421608   0.5760316
   0.7447442   0.3600847   0.3730798   0.1068020   0.1589609  -0.0466245
   0.1219858  -0.0846243  -0.3687708   0.6105061  -1.2108060   0.7503752
  -0.2894291   0.0890045   0.1351753  -0.7379964  -0.1491119  -0.4405247
   0.2546401   0.5157268  -0.1388878   0.0500090  -0.1368077   0.0041365
  -0.6249023   0.2364612  -0.1481115   0.3663650   0.4829795   0.2771744
  -0.1027294   0.0653311  -0.2725597  -0.7167166   0.5816247  -0.2812722
  -0.5674316  -0.7307911  -0.0495527   0.1100298  -0.1480533   0.1165400
   0.0873520  -0.1586082   0.0881035   0.4935537  -0.7155846  -0.0743331
   0.0540969   0.1610332   0.0884316   0.2990619  -0.7697942   0.7763740
  -0.7006005  -0.3978500  -0.8553862   0.1118959  -0.1952244  -0.0449023
  -0.9497963  -0.3222264   0.8061385   0.0686988   0.5533914   0.0358183
  -0.1425271  -0.0676548  -0.1877041  -0.9543241   0.5606263  -0.4362851
  -0.3126550  -1.2166600  -0.5748005   0.1193251   0.0777199   0.1079303
  -0.2028563  -0.7619199   0.1418049  -0.1343353   1.2231268   0.9585563
  -0.1508736   0.0424545  -0.3452145   0.1802323   0.1836782  -0.1402239
   0.9255516   0.0340733   0.5386650   0.0943293   0.1128992   0.1482332
   0.6165993   0.0046268   0.2625728   0.4515206   0.6472644   2.2084716
   0.2947827   0.1610779   0.0519887  -0.3527450   0.1077129  -0.6151606
   0.2352160   0.3396412  -0.1902269  -0.2121421   0.1053067   0.0226797
   1.9148544   1.6128214  -0.1998728  -0.4638447   0.0293868  -0.3961798
  -0.1217486  -0.2403651  -0.1309682   0.5351617  -0.3748879   0.4377101
   0.2951744   0.2559548  -0.6876819  -0.3068755  -0.0562717   0.1178454
   0.4525771  -0.2753704  -0.8496273   0.3340374  -0.2053850  -0.1212781
  -0.1033097   0.2529786  -0.0013108   0.1734163  -0.7646220   0.7073751
  -1.8510747   0.9421797   0.4741607   0.2268041  -0.1671921  -0.1585454
   0.2414952   0.5565731   0.1546323  -0.1216730  -0.9787079   0.7490875
   0.3203482   0.1073618   0.2989359  -0.7830168  -0.2939562   0.1243014
   0.4244353   1.0336831  -0.5848955  -0.2246080  -0.2726449   0.1415854
  -0.1700599  -0.9099305   1.2539057   0.1405244   0.7092598  -1.2026268
  -0.1720439   0.0138709  -0.0486563  -0.1361433  -0.0726860  -0.5194256
   0.0215578  -0.1426566   0.1890239   0.0103204   0.1438249   0.2278210
   0.0703018   1.0000968   0.4188294   0.2578590   0.0224651  -0.0435215
   0.2567859  -0.0217094   0.1007709   0.1000931   0.2564912  -0.1758387
   0.5301562  -0.2889715   0.8586744  -0.0574285  -0.0629857  -0.1275848
   0.9002757  -0.0382895  -0.5506268  -1.9631064  -0.0339954   0.4856647
   0.3578281   0.2361053   0.0291343   1.2757926  -0.0935429  -0.4682499
  -0.3639623  -0.7346404   0.4503984  -0.2988583   0.2078280   0.0898100
  -1.1477521   0.6654021  -0.0377404  -0.4283427   0.2806347   0.1042770
   0.1530451  -0.1048101  -0.1283865  -0.0053735  -0.3625495  -0.0876058
   0.5824084   0.3554268  -0.1496803  -0.3994623   0.2679324   0.1954741
   0.1680689  -0.2776222   0.7831759  -1.4372352  -0.2592403  -0.1261572
   0.1678790   0.0759395  -0.2786617  -0.1475793  -0.1686176  -0.2711699
   0.0466105   0.5606287  -0.6542015   0.3308737  -0.0314072  -0.0779952
   0.1647365   0.0937333   0.8247884   0.0867110   0.2121696   1.1078652
   0.1372525  -0.1864152  -0.2067169   0.3365169  -0.6896165   0.3541828
   0.7812991  -1.0906960  -0.3553900  -0.2634811  -0.2549570  -0.0954544
   0.4990878   0.4938436   0.3622847   0.9171526  -0.2557111  -0.3361793
   0.1741031   0.1718276   0.2994989  -0.8560892  -0.2645144   0.2911534
  -0.0404295   0.5632235   0.0220164   0.1245501   0.3201801  -0.1751687
   0.6323947   0.1322090   0.0245105   0.2995545   0.4781745   0.2277177
   0.2171217  -0.0326064  -0.0289441   1.0962641   0.3216983   0.2944366
   0.5647383  -1.1942362  -0.3031172  -0.1493840  -0.0520054  -0.0592925
  -0.7658193  -1.3644407   1.2877146   0.1734792   0.3448262  -0.4463516
  -0.0568655   0.1541870  -0.1322200   0.4566418   0.8915087   0.4843974
   0.4855382  -0.2393155  -0.6066556   0.0551127   0.0243337  -0.0352495
   0.0416188  -0.0584504  -0.1177512   0.2021270  -0.0076046   0.0065590
  -0.1033594  -0.2095010   0.4379847   0.9092985  -0.5834413   0.1307377
  -1.2846766   0.5574068   0.2878783   0.3024894  -0.0739050   0.2121994
   0.5650130  -0.4819407  -0.4995791   0.4075237   0.5404113   0.4831502
   0.1069992  -0.1124412  -0.0476975  -0.2141363  -0.1191968  -0.0585214
  -0.4565644   0.6830122  -0.9351771   0.0138738  -0.1501610  -0.0334541
  -0.0724832  -0.2615503   0.8417284   0.6883947   1.1368379  -0.9890489
   0.3181503   0.4753839   0.0955320  -0.0698892   0.5791432  -0.8303637
   0.4571367   0.5600589  -0.7671435   0.1589199  -0.0765777  -0.1899579
  -0.6192880   0.3446954  -0.0908264   0.6212839  -0.1884686   0.1398575
  -0.3350987  -0.2452856  -0.0389477  -0.4601279  -0.4966566  -0.5623862
  -0.8328338  -0.1175205  -0.0937318  -0.0670648   0.0523263  -0.1529060
   1.1531871   0.1751668   0.0226146  -0.8084689  -1.1224034   0.8217708
  -0.2058226   0.0443102  -0.1205821  -0.7949439   0.0530127   0.3287871
   0.5581130  -0.0376530   0.1020693  -0.2391969   0.0076719  -0.1451314
  -0.6577603   0.1111496  -0.3621329  -0.9008824   0.5090754  -0.2008157
  -0.0336999  -0.1104476  -0.0995819  -0.3165896   0.4230758  -0.6767106
   1.9625806  -1.1464101  -0.4213477  -0.2098764   0.1733880   0.3238225
   1.1852914  -0.8335332   0.4700854  -0.9545171   0.8272664   0.7211513
  -0.0483760   0.2001685  -0.2331286  -0.1755675  -0.1540028  -0.5646578
   0.5028400  -0.1564661   0.6557011  -0.0172654   0.0491373  -0.0263505
  -0.8707963  -0.3222489   0.5965358  -0.1304665   0.3720844  -0.3438576
  -0.2486464   0.0541498  -0.1774134  -0.6155121  -0.8746476  -0.7106576
   1.0956969   0.0877502  -0.4458486   0.0449293   0.0186132   0.2306576
  -0.1651776  -0.4484527  -0.3812271   0.7925796   0.2302646   0.0344450
   0.1352079  -0.0991695  -0.1733130   1.1586587   1.0104031  -0.9667629
   0.7450966   0.9415529  -0.5553661   0.3081889  -0.0861349   0.1698210
   0.5675633  -0.0130328   0.1379238  -0.1554651  -1.1446502  -0.8576529
  -0.0906342   0.0957153   0.0274469  -0.5252740   0.2007553   0.2976539
  -0.1516755   0.5777503   1.4475951  -0.0777973  -0.0886429   0.0096996
   0.0948977   0.1429360  -0.4648475  -0.0735816   0.5351947   1.9974177
   0.0025218  -0.1906312  -0.2410577   0.5523364   0.1229548   0.7009653
   0.1983986  -0.0956859   0.1646475   0.1257044   0.2154859   0.1356488
  -0.4098767   0.3070349   0.2147616   0.4020304   0.4029273   0.2241254
   0.0516988   0.3308549  -0.3929033   0.6579838  -0.7653535  -0.8247098
  -0.2642727   0.8442591   0.1536526   0.3095548   0.0461097  -0.1075595
   0.1469928   0.2761976   1.1116180   0.3446950  -0.0479284  -0.5659845
   0.1257868   0.1565309  -0.1735636  -0.0625220  -0.1106426  -0.5734102
  -0.2171733   0.3509269   0.1273390   0.1593409   0.1519574  -0.0346965
   0.5766712  -0.7421039   0.2626629  -0.1257269   0.8996894  -0.4766382
   0.1478463   0.1192212   0.0079219  -0.5299529   0.7758757  -0.5783159
  -0.3205393   0.4691482  -0.3586689   0.0758095   0.0487620   0.0280955
  -0.6373081   0.2134463   0.6132995   0.9484479   0.7400790  -0.0329415
  -0.1084588  -0.1316939   0.2135660   0.4821620   0.2389534   0.5210285
  -0.1631064  -0.1647635  -0.5513841  -0.0668400  -0.4110579  -0.3045531
  -0.2323800  -0.2716825  -0.0035870  -0.2171161  -0.1120114  -0.1741922
  -0.0412014  -0.0724114   0.1358149  -0.5358087  -0.6586042   0.8232702
  -0.1757861  -0.7831633   0.7128263  -0.0424575   0.1859027   0.2035612
  -0.2492217  -0.6433794  -0.8267506  -0.7366640  -0.7346720   0.1068658
   0.2016855   0.0698831  -0.0913811  -1.4238053   0.6497940  -0.1085480
   1.0467966  -0.0273729   0.3622237   0.0662351   0.1134646   0.3136387
   0.7925514  -1.0111008  -0.8791037  -0.0562212   0.2287578   0.4225280
   0.3014111   0.3999805  -0.0041487   0.7353166   0.7124722   0.5705288
   0.9813721  -0.1540121  -0.3400522  -0.0184327  -0.3832314   0.2170532
  -0.5906920  -0.5274367   1.4272071   0.1201153  -0.0798068  -0.4538377
   0.0424602  -0.2511225   0.1189415  -0.3077455   0.6747477   0.5342059
   0.2321446  -0.0018135  -0.8173934  -0.4079103   0.2302602   0.0284112
  -0.2918093   0.8949708   0.1892072  -0.4127003  -0.2250761  -0.5894621
  -0.2860663  -0.1328205  -0.1004969  -0.5443475   0.0569170  -0.9722322
  -0.0268021  -0.3057945   0.3527389  -0.0260669  -0.2321201  -0.1325396
   0.1587527  -0.3074386  -1.0779641   0.1701383   0.3925148   0.1633631
  -0.1626546   0.1577289   0.0591886  -0.9314585   0.1953392   0.2047748
  -0.2602457  -0.0210741  -0.0876919  -0.1949799  -0.1716075   0.0100906
  -0.7382578  -0.0252546  -0.7354960  -1.1592431   0.2226472  -0.9416602
  -0.1106959  -0.1944575   0.0307534  -0.0669019   0.0739421   0.3696889
  -0.0756058   0.2056109   0.2578882   0.0416102   0.0161140   0.0519352
  -1.4729587   0.9501082  -0.2900547   1.1446827   1.3656760  -0.0788272
  -0.1538253   0.1950400  -0.1003117  -0.6532609  -0.6328384  -0.4913600
  -0.6989804   0.2092897   0.5034114  -0.2363732  -0.0073394  -0.1601177
   0.2692996   0.3464332  -0.5338685   0.1499289  -0.7131307   0.0633669
   0.1018736  -0.3496846   0.2660598   0.8310993   0.1456152   0.0070002
   0.6569920  -0.6474471  -0.3423659   0.1729010  -0.0032069  -0.0187281
  -0.6198461   0.9959311  -0.6740501   0.3342635  -0.1665739   0.2833825
  -0.1604443  -0.4013642  -0.1982665   0.7225584   0.0502063  -0.0749592
   0.5941979  -0.2028049  -0.2285180  -0.1156730   0.3049416  -0.0820237
  -0.7405965   0.0931372   0.0113109  -0.6486795  -0.1080492   0.0160640
   0.2478689  -0.2213293   0.0248076  -0.5455786  -0.2837057   0.2364379
   0.4714259  -1.4672452  -1.1937399   0.1746333   0.1705863   0.1789264
  -0.2359737  -0.2703173  -0.2006392   0.2166304  -0.2995791   0.4748579
   0.0443416  -0.1625638  -0.0861788   1.2141991   0.4150717  -0.9125412
   1.5032096  -0.1820851  -0.9225358  -0.1034120  -0.0352164  -0.0384779
  -0.9102717   0.6765235   0.0906505  -0.5500895  -0.7482705  -0.2657616
   0.4291688   0.2913097   0.0796891   0.3831908  -0.0427798   0.9405794
  -0.0921418   0.3428140  -0.2483498  -0.1175990  -0.2598997  -0.2392698
   0.0871357   0.3350679  -0.9560610  -0.0120247   0.0888365  -0.7785206
   0.0238915  -0.0759772  -0.1390621   0.6482248   0.0807077  -0.7618891
  -0.9747759   0.4212594   0.1521802  -0.0039355  -0.0101520  -0.1008793
  -0.2950653   0.6207098  -0.0285573   0.6399158  -0.1097955  -0.2083682
  -0.1464922   0.2799646  -0.0884447  -0.1106484   0.2632953  -0.2072779
  -0.0690502   0.4602908   0.2983909  -0.2821126  -0.5902611   0.1552120
  -0.0536643  -0.9372452  -0.0558095  -0.3133122   0.0199094  -0.0405649
   0.0348700   0.0270624  -0.1612434  -0.0881164  -0.4570279  -0.3901360
   0.2242078  -0.2513190  -0.2529061   0.1091488  -0.1641398   0.2507278
  -0.6636307  -0.4473543  -0.3757260   0.7815642   0.0124916   0.8547888
  -0.0811893   0.2205242  -0.1322417   0.5640636  -0.3230029   0.8211625
   0.0284062   0.5823096  -0.7235189   0.0350297   0.2633558   0.2405001
   0.4234933  -0.5680818   1.0128406  -0.3999489  -0.6611631  -0.8423229
   0.0229917   0.0852173   0.4717551   0.0404897   0.5237427  -0.0000435
  -0.6314910  -0.1862169   0.5761457  -0.0409347  -0.2620809  -0.2927459
  -0.4671230  -0.4477762  -0.3813623   0.0498172  -0.8063450  -0.5147116
   0.0640218   0.0516474   0.1280264  -0.2544438   0.7934524   0.4176236
   0.3237334  -0.6525986  -1.4572552  -0.0109216  -0.1024481   0.0627267
   0.9128245   0.2155822   0.1278633  -0.1233159  -1.4525660   0.4511914
  -0.0152087   0.1596020   0.2215428   0.6988154   0.7167324  -0.8372667
  -0.3659467  -0.0223136   0.8502076   0.0466852   0.0729827  -0.1360097
  -0.1015227   0.1901620  -0.6542657   0.4825655  -0.6538767  -1.1826049
   0.0663843   0.0746117   0.1626690   0.6755027  -0.1018447   0.1868854
  -1.3114017   0.7385363  -0.0236857  -0.1033989   0.1839001   0.3059207
  -0.0603934   0.8863386   0.0258481  -0.3003208  -0.1563575  -0.3768969
   0.1174884   0.2002858   0.1386262  -0.0630115   0.0495603   0.2785420
   0.2564493   0.2692555   0.3455904  -0.2254647   0.0727127  -0.1290330
  -0.3880743   0.1794369   0.1828617   0.6340427  -0.5571599  -1.6223099
   0.2620350  -0.0584517   0.1733384  -0.0014440   0.0032407   0.2217386
   0.6697871   0.2459249   0.3526003  -0.0048672  -0.3321021   0.0483083
   0.7689087   0.3564025   0.4856650   0.6329636  -0.7121478   0.4335110
  -0.0020501  -0.0213569  -0.0678670  -0.2489632  -0.1902544  -0.0832221
  -0.8614635  -0.9950878   0.9119226  -0.1811507  -0.1189139  -0.0724891
  -0.3885615   0.5780264  -0.1375684  -0.1124396  -0.1866473  -0.0628990
   0.0726004  -0.1870672  -0.0329406   0.6766151   0.6687041  -0.2248303
  -1.3671691   0.8410254  -1.6043764   0.1932935   0.3293055   0.1211283
  -0.0421432   0.7586754   1.0805576   0.0295685  -0.9432557  -0.3543675
  -0.3119645  -0.0518397   0.0831551  -0.0010959   1.2033435   0.4190097
  -0.3741651  -0.8721574   0.2896404  -0.1034101   0.2222955  -0.2590916
  -0.0853819   0.9502296  -0.6481424  -0.1541914  -0.9461753   0.2415580
  -0.0464108   0.1289603   0.1961041   0.2156835   0.2826756   0.4033292
   0.4042679   0.5227875   0.9201701  -0.1317322  -0.0143653   0.2007399
  -0.9391457   0.7669801  -0.2669279   0.4981919   1.1448439   0.4358548
  -0.2211346   0.0201213  -0.0955880  -0.3475182  -0.2806547  -0.5111128
  -0.6914832  -0.2356931   0.2445816   0.4698837   0.0146958  -0.0262348
   0.0182982  -0.1169889   0.3749087   0.2070073  -1.5021005  -1.3842411
  -0.1348008   0.0087114  -0.2770698   0.1927436  -0.1104788  -0.6660602
   1.1494698  -0.1493166  -1.3989352   0.2594627  -0.3002440  -0.3258253
   0.3490004  -0.2085711  -0.4605057   0.2786140  -0.9733390  -0.4673311
  -0.0777395   0.2028555  -0.3856220  -0.2657638   0.5680932  -0.2828401
   0.6379458  -0.3783728  -0.4417018   0.3433396  -0.0826833   0.1467603
  -0.1914435   0.5142917   0.5042021   0.9232206  -0.5553916  -0.1361968
  -0.1656146  -0.1007605  -0.1103534   0.6356591   0.3223758  -0.6335247
   0.6163201   0.2299489  -0.5983006   0.2444540   0.2984368   0.1830697
   0.2222193  -0.3211222  -0.0615087   0.2149893   0.0546409   0.1113507
   0.3005421   0.2086064   0.2469355   0.3782667   0.3510459   0.2576920
  -0.8893386  -0.3919284  -0.0783283  -0.2489126  -0.0385109  -0.2679306
   1.6388598  -0.0094131   0.0315130   0.8929563   0.9819443  -0.2069282
  -0.0753265   0.0609695  -0.1943029  -1.2883852   0.2100230   0.9846395
   0.4846330   0.4980652   0.3646946   0.1925779  -0.0007433  -0.3690068
   0.1802054  -0.3735605   0.1161658   0.8114392   0.1127170  -0.5589067
  -0.2626328  -0.0067211   0.0733691  -0.0457610  -0.1552159   0.5591305
  -0.4910231   0.2334212   0.0137455  -0.0769731   0.1345914   0.3003854
  -0.3007876  -0.2633112   0.7129083   0.0169857  -0.1485562   0.0984667
   0.1920664  -0.0981663   0.2092659   0.7193604   0.6988882   0.9243027
  -0.9186291   0.2877130   0.5733481  -0.0357362   0.0836200  -0.0151956
  -0.0138879   0.0627322   0.4980911   0.0708517   0.2991615   0.6017251
   0.1522193  -0.1204109  -0.1834419  -0.2079919  -0.2869323  -0.0713837
  -0.3084098  -0.4073289  -0.2540182  -0.0995029   0.2144969   0.0171629
   0.1919659  -0.8362074  -0.4868390   0.0760025  -0.3532677  -0.2234994
   0.2048063   0.2464654  -0.1418718   0.2862592   0.5763557   0.8624898
  -0.6961415  -0.0198463  -0.0308039   0.0230535   0.0253408   0.0276177
   0.4587656   0.1596601   0.7090268   0.1999043   0.3928907  -0.3390698
  -0.2539342  -0.2683145   0.1401093  -0.2605142   0.3591038  -0.2679396
  -1.2436532  -0.1458539   0.6049641  -0.0221924   0.0030300   0.3871905
   1.1566976   0.5195398   0.8224518  -0.2660052  -0.3693285   0.1850044
  -0.2442744  -0.4559517  -0.0599066   0.2474942   0.5573936  -0.4429335
   0.0286899  -0.0252452   0.9264560  -0.2006482   0.4406699  -0.0212594
  -1.2621992  -0.6801824  -0.0977492   0.3749779   0.3713539   1.3963273
   0.1365312  -0.1245331   0.1750480   0.2097674   0.5291635   0.2628421
   0.2501975   1.0478735   0.3447097  -0.4832510   0.3257871   0.0649007
  -0.1991469   0.4996545   0.3267324   0.2298660   0.2827969  -0.5767352
   0.0659013   0.3430430  -0.0385711   1.1829782   0.3164682  -0.0708189
  -0.0578314   0.9188087   0.1388607  -0.0996793  -0.2703591  -0.0296891
   0.3753445  -0.8298423   0.7930728   0.5000666   0.5454042  -0.0211529
   0.0407213  -0.0156814  -0.1283480  -0.3676626  -0.7864280  -0.4720656
  -0.2589957  -0.3220552   0.0181323  -0.0300733   0.0671813   0.2887029
  -0.1652785  -0.1258608   0.2698264   0.3134292  -0.4604708  -0.1974694
  -0.0374271  -0.1073928   0.0595294  -0.8848561   1.1716469  -0.9185320
   0.3311647   0.5314940   2.2810397  -0.2313835   0.3366104   0.0262362
   0.8537606   0.8517543  -0.1303422  -0.0541253  -0.5328301   1.2167643
  -0.1927262   0.0190765  -0.3829814   0.1113375   0.7123580  -0.5933859
  -0.4896517  -0.6982869  -0.2218353  -0.1758812   0.0859823   0.0830627
  -0.2086530   0.0403190   0.0664389   0.6239034   0.3435921  -0.4614770
  -0.1046964   0.4002623   0.0930127  -0.3241471   0.5380167   1.1388769
   0.1149718   0.0966295  -1.4659121   0.0324036  -0.2432569  -0.0557443
  -0.2320700  -0.2416831   0.0085091   0.3670990  -0.2713469  -0.1560951
  -0.0602557  -0.1172661  -0.1709245   0.2084239   0.2842766   0.6981223
   0.2747022  -0.2233096   0.2547483  -0.1445285  -0.0736945  -0.3250327
  -0.3586842  -0.3866212   0.6588591  -0.4825841  -0.8115910  -0.9010120
   0.3958608   0.1246579   0.3270389  -0.1179698  -0.2647388  -0.4175151
   0.2716675   1.0349893  -0.9852953  -0.1934686   0.0455370  -0.2144175
  -0.6505501   0.3205511  -0.1560202   0.0459658   0.3274981  -0.5223587
  -0.3773016  -0.1280998   0.0450996  -0.7463951   0.3915422  -0.8722430
  -0.3724143  -1.0987408  -0.0606231  -0.0605552   0.2297381  -0.5008121
   0.3255959  -0.0629081   0.0425056   0.1506221   0.6134117   0.2637071
   0.0657546  -0.1714431   0.0079399  -0.1231457   0.1340066   0.7273523
   0.4590784   0.0972263  -0.7335090  -0.0291269  -0.2869510  -0.1603371
  -0.6377389  -0.2279445   0.6125051  -0.6775412  -0.2692657   0.5951821
   0.0345123   0.1875735   0.0793292   0.8437987   0.6448222   0.1063964
  -0.1908103   0.6391876   0.0738418   0.0428954   0.1531374  -0.0438208
  -0.5184244   0.3585450   0.1052366   0.2186614  -0.0160542  -0.2069527
   0.1803200  -0.0416492   0.1039898   0.2008934  -0.1032607  -0.3129235
   0.2106885  -0.0576412  -0.1521177  -0.2458539  -0.0773113   0.1281112
  -0.2239085  -0.6218414   0.0732426   0.2309533   0.0952236   0.0575868
   0.1018584   0.0881623   0.2071592  -0.7350267   0.8863852  -0.9958579
   0.2373330  -0.5428579   0.2612830   0.1617084  -0.1170635  -0.0879537
   0.0960810   0.5020459  -0.0696426   0.0605519  -0.0719664   0.1068046
   0.2365773   0.1497119  -0.0167537   0.2263610  -0.5969360   0.5641837
  -0.3221704   0.2236545  -0.0191934  -0.4586610  -0.2743491   0.0426708
   1.1418293  -0.0134432   0.2472866  -1.0635611   0.0997588   0.5285625
   0.2655653   0.0474532   0.1824935  -0.2106346  -1.0460188   0.2519543
   0.0607850   0.3938810  -0.7726797   0.0772616   0.0973327  -0.0814774
  -0.9665591  -0.1532472  -0.5290159   0.6035975   0.7653036  -0.9173552
   0.0279472   0.1371810   0.2545122   0.4829722   0.3214124   0.3131993
  -0.2756754   0.2041397  -0.4239011  -0.0373016   0.0080891  -0.0869587
  -0.0028194  -0.3904181   0.2695015  -0.0367308   1.0457818  -1.1692356
   0.4769564   0.4557965   0.1350821   0.2139425  -0.1663242  -0.4448964
   0.4054395   0.2913394  -0.2213389   0.0116092  -0.1401901   0.2880051
  -0.0474011  -0.2960083   0.2253439  -0.6880988   0.4051435   0.2650908
  -0.1047582   0.1232601  -0.1094761   0.3129404   1.4341356  -0.7455833
  -0.0194539   0.4512222  -0.2404096  -0.1083863   0.0248600   0.0511572
   0.3525784  -0.0763235  -0.2397936  -0.3786922  -0.3952205   0.2076427
  -0.1213502  -0.0471018   0.1032417   0.3119566  -0.3058167  -0.1929610
   0.4424406  -0.6572765  -0.3508905   0.1968389  -0.0373320  -0.0640792
   0.2413945  -0.1349678   0.0754210   0.2404679  -0.7306951   1.0781673
   0.1916078   0.2959088  -0.0824726   0.2827649   0.7085106  -0.0777012
   0.2579212   0.5829674  -0.0849518  -0.0506519   0.1548759   0.1934496
  -0.7544614   0.0472157  -0.0598712  -0.2868186  -0.1313649   0.3629383
   0.0830749  -0.1308082   0.0022439   0.1726575  -0.0650973   0.0485562
  -0.4632427  -0.4506902  -0.0108124   0.0859131  -0.1042651   0.0199301
  -0.2975858   0.9703472   0.9339021   0.1955650  -0.3616220  -0.1650090
   0.0031265  -0.0002291   0.1425868   0.3986975   0.4944963   1.1534487
  -0.1529414  -0.0161791   0.1712608  -0.0243944   0.1963261   0.0038015
  -0.2565468   0.0645844  -0.6041669   0.4025731   0.1815741   0.4708273
   0.1249028   0.0548551  -0.0636373  -0.3161057  -1.4885994  -0.0307538
   0.5539657   0.6554977  -1.5607134  -0.2233266  -0.1602562   0.2241142
   0.9035517   0.3074377   0.1127129  -0.5584621  -0.3140200   0.3103218
  -0.0868328  -0.0581105  -0.1641564  -0.1075513  -0.6716834  -0.3756125
  -0.5371934   0.3867699   0.1232297  -0.1976222  -0.2847968  -0.0128369
   0.6624333   0.3132803   0.0733025  -0.2582949  -0.3682839  -0.3777017
  -0.1211902  -0.2500283  -0.1165810  -0.3877538   0.6119347  -0.8006639
   0.8902370  -0.8529190   0.9077426   0.1273041  -0.2966544  -0.1229261
   1.1253711  -0.6994903   0.6703373  -0.2363939  -0.1897192  -0.4333821
   0.2277401  -0.3599499   0.2864811  -0.0408987  -0.9704730  -0.8702925
   0.2435814  -0.3387535   0.3492352   0.3161258  -0.4311003  -0.1154048
  -0.3679315  -0.7074624   0.0031928   0.3364006   0.1113006   0.0618005
  -0.0579398  -0.3157773   0.0997424   1.1403321   0.7904933  -0.0116701
   0.9261632   0.4191770   0.8916065  -0.0311042  -0.2705687   0.1135194
   0.4472296   0.4340329  -0.2147722   0.5540443   0.6268393  -0.7061388
   0.0626196   0.2858471  -0.3377094  -0.2464196   0.5965751  -0.2690932
  -0.4834842   0.0716958  -0.7889279   0.1129796  -0.0158360  -0.3706625
   0.1424234  -0.0973072  -0.3623659   0.1070861   0.0737336  -0.4065782
  -0.0136584  -0.0296409  -0.1762257  -0.1223424   0.5617890  -0.9315481
   0.3146506   0.0966475   0.8681541  -0.0560881   0.2697729   0.0265744
  -0.5179789  -0.7326804  -0.9929127  -0.7585369  -0.6310021  -1.1894054
  -0.0312326   0.2100945  -0.5858972  -0.6150626  -0.3463160  -0.3940140
  -0.0703320   0.0048828  -0.7197545   0.2272478  -0.0250221   0.1618502
  -0.2562025  -0.1963362  -0.1184856   0.1237865  -0.2620963   0.7559950
   0.1448622   0.3039577   0.2791953  -0.0721394   0.4035262  -0.0577181
   0.2894437  -0.3429351  -0.3974857  -0.1259531  -0.1268443  -0.1299338
   0.2028166   0.3571310  -0.4848854   0.5456161  -0.7830694  -1.6451205
  -0.0435638   0.3186335  -0.2237630  -0.5238946  -0.4149518  -1.4469869
   0.2839633  -0.1653827   0.6229078  -0.0699382   0.1966115  -0.1322110
   0.0125145  -0.3782036  -0.2711603  -0.0386109  -0.0339119  -0.1850953
  -0.0216468   0.0350787   0.2053781   0.5384886  -0.2166635  -0.8192592
  -0.9230244   0.5032002   0.1097360   0.0144282   0.1115638   0.0853184
   0.4884778   0.9971226   0.8435897  -1.4027269   0.8475193  -0.3580302
   0.3789877  -0.0374831  -0.0056493   1.3232785   0.1749877  -1.0972483
  -0.5537932   0.2462810   0.7933052   0.3209612  -0.0172611  -0.1592997
   1.1356934   0.4272503  -0.6323018   1.0785034   0.3663413  -0.5480458
  -0.0079581   0.0303786  -0.0038271   0.0084534   0.6725261  -0.2375603
   0.0526474  -0.8473275   0.5020280   0.1851543  -0.3924514   0.1114633
   0.1341471  -0.7560210   0.4677654   0.8650793   0.3109793   0.3045968
  -0.0434165   0.1600975  -0.0993697  -0.4934051  -0.5470692   0.4998266
  -0.9022232   0.4022498  -0.0404270   0.2317889   0.1056068   0.1700814
   0.3428873   0.3927631   0.2324561   0.0645768   0.3593392  -0.1742474
   0.0177946   0.1259811  -0.0047644  -0.1366629  -0.8684211  -0.6242779
  -0.2768366  -1.0297194  -0.4630541   0.1810070  -0.0120358  -0.0252891
  -0.3273080  -0.2398496   0.5826165   0.3493146   1.6881846   0.1282773
   0.1587676  -0.2219388  -0.0318743   0.4063176  -0.4906051   0.2414391
   0.1946426  -0.3008043  -0.3971922   0.1748805  -0.2214641  -0.1861808
  -0.2144238  -0.3738042   0.7009667  -0.4335167  -0.3201840   0.2810233
  -0.0787985  -0.1703498   0.1585560   0.2127454  -0.5213410   0.1290222
  -1.3492140   0.4179870   0.0036414  -0.2177696  -0.1188667   0.2652751
  -0.2539387  -0.0444044   0.2893228   0.2706145  -0.4522937   0.1746914
  -0.1062240  -0.2016363   0.3443638  -0.5725727  -0.1575383   0.3085817
  -0.2733913  -0.0370569   0.3104141  -0.1078729   0.0475444   0.0285058
   0.9547427  -0.1877440  -0.1482545  -0.3150191   0.2437781  -0.4845332
  -0.0574719  -0.4085614   0.3344730   0.2956511  -0.2282539   0.8370010
  -0.0921263  -0.4274395   0.1847076  -0.1671744  -0.0582679   0.2502045
   0.2145969  -0.3733325   0.0941456  -0.3119281  -0.4777084   0.1537217
  -0.0118974   0.1503219   0.3244028  -0.5108937   0.1493301   0.2102599
  -0.8276146  -0.5616354  -1.5645183   0.2970846  -0.0009998   0.0426083
   0.1456316  -1.0473219  -0.0763041   1.1866142   0.2282971  -0.3274062
   0.2744116  -0.1698169   0.2223704   0.1882161  -0.1258100   0.3891074
   0.4110644  -0.3794213   0.2106341   0.0813467   0.4094690   0.1298540
   0.8194090  -0.7575037   0.7402308   1.4300240  -0.8697475   0.5958845
  -0.0620593   0.3202572  -0.0065216  -0.3708655   0.6534599  -0.0537579
  -0.3220745  -0.0192435   0.3385022   0.0242124   0.2370872  -0.1938798
   0.3865557   0.4105841  -1.0049162  -0.7618173   0.7403143   0.0557625
  -0.0219017  -0.1866079   0.2398401   0.3618227  -0.3956673   0.7327143
  -0.7036515  -0.0605152   0.5685673  -0.0840987  -0.0515874  -0.0635789
   0.7041532   0.7343756   0.2511485   0.7470120  -0.5423284  -0.6721322
   0.0684867  -0.0942473   0.1242255  -0.6546227   0.3084109   0.3591304
   0.1645137   0.0646612   1.5008372  -0.1727564  -0.1042237   0.2317188
  -0.7910557  -1.3178061   0.2448719  -1.1620387   0.8455420  -0.3343474
   0.0313557  -0.1402955   0.3118502   0.1186610   0.0460841   0.3581204
  -0.2835768  -0.2193501   0.3853369  -0.1237051  -0.0648972   0.1059563
   0.5589978   0.1075593   0.2012354   0.0593277  -0.1489305  -0.0621884
  -0.1805208   0.2960307   0.2166582  -1.0743123  -0.9908691   0.6203833
   1.3050236   0.8003508  -0.3095791   0.0130501  -0.0248479   0.2358631
   0.7711612  -0.0244562   0.2400375  -0.4410775  -0.1400190  -0.0010932
   0.1094776   0.2187459  -0.2365926   0.4128213   0.0484611   0.0517551
  -0.0088832   0.2602052  -0.2096662   0.3290153   0.0444137  -0.3508769
  -0.3616691  -0.3631617  -0.4411848   0.4877413   0.3240558   0.1995647
   0.4179488   0.3560595  -0.0327735   0.3281078   0.6655149  -0.9458630
   0.2950304   0.5185164  -0.5552522  -0.0204815  -0.2431167   0.0552365
   0.7448579   0.2398492   0.3774909  -0.7728292   0.3467150  -0.5281123
   0.1594529   0.2612137   0.1590388  -0.2462360  -0.0308087  -0.1436775
  -0.4850137   1.1475917   0.4039218   0.0376198  -0.0234414   0.0214981
   0.2806091  -0.5079679   0.1825721  -1.4284364   1.1347038  -0.0025743
  -0.1290388   0.2704267   0.0502266   0.6105600   0.1717456  -0.3961019
   0.7843300   1.4769326   0.9954752  -0.0875128   0.3432494   0.1645551
   1.4092192   0.3693935  -0.4961740  -0.0883901   0.4359029  -0.4863504
  -0.1809917  -0.3160291  -0.0950554   0.2848497   0.0232225  -0.5755185
  -1.0525007   1.2488281   0.0896306  -0.1499391  -0.1264078  -0.0802466
  -0.2218457  -0.0966366   0.2096863   0.1921478  -0.2409646  -0.4521346
  -0.2256538  -0.1400298   0.0030817   0.1666920   0.5436770  -0.0644918
   0.5281339  -0.0579946  -1.0698052   0.0402172  -0.1688656  -0.0767808
   0.5288421   0.0639624   0.1196779  -0.4125876   0.0662252   0.1523110
  -0.2489637  -0.0692813   0.1483062  -0.6135769  -0.4684092   1.1106357
   0.0218762  -1.1122457  -0.1641119  -0.2586660  -0.0611106  -0.0968151
  -0.8731418   1.7761706  -0.4837436  -0.2060019   0.4620754  -0.9277926
  -0.0761985   0.3172609  -0.2006938   0.3654942  -0.6253521   0.9288697
   0.7609988   1.2886029   0.1499996   0.2420492   0.0324430  -0.2424326
   0.2270774  -0.2482800  -0.5703972   0.3776348   1.2499590   0.6290828
  -0.1796850   0.0103117   0.1756845  -0.1323784  -0.5314526   0.8680317
  -0.4633500   0.2951074  -0.3689794  -0.0416337  -0.0410227   0.0767989
   0.3072298  -0.3396413  -0.9838416   0.0677642   0.3043569   0.7054467
   0.1545359   0.1822981   0.1108643   0.2043300   0.2004676  -0.2672508
   0.5110916   0.1151208   0.2607142  -0.1534158  -0.1058119  -0.0077297
   0.1548988  -0.1756923  -0.1418197  -0.0400035  -0.4374339  -0.0565592
  -0.0964666  -0.1622256  -0.0630747  -0.1643983  -0.3562937  -0.0444123
   0.3402180  -0.5835230  -0.2801929  -0.2270574  -0.1407760  -0.1986571
  -0.5171960  -0.1524654  -0.0449855  -0.3865027  -0.3988762  -0.3955609
   0.1292653  -0.1151400  -0.1958394  -0.0050127   0.4193366  -0.7094898
   0.1317757   0.0655243  -0.3527853   0.1242971   0.0743142  -0.1468807
   0.0209802   0.7977971  -0.6305240  -0.8748208  -0.3474963   0.4192010
  -0.0836093   0.1783222   0.3256237   1.4262863  -1.0591370  -0.3816993
   0.2056846  -0.0504933   0.1087330  -0.0696070   0.3136115   0.3252766
  -0.1600768   0.2608899   0.3295585   0.0001292   0.2813090   0.4014109
   0.0829214   0.1605364   0.2214475   0.1601501   0.1220772   0.4622717
   0.1121988  -0.0875561   0.4341230  -0.0919336  -0.0264665   0.3016970
  -0.2700733  -0.6854935   0.4271281  -0.2348170  -0.8890411  -0.3603726
   0.2480271  -0.2376159   0.0347458   0.1452586  -0.3748015   0.5145364
   1.0292124   0.0554349  -0.9466153   0.3453420  -0.0957952  -0.2168278
   0.8188077   0.1651702   0.2974298  -0.3343898  -0.2505180  -0.4882522
  -0.1770150  -0.0436940  -0.0185214   0.1556892   0.5016728   0.0273824
   0.0759291  -0.1787144  -0.0793747   0.0930718  -0.2281406  -0.1522760
  -1.1005176   0.5752008  -0.2471715   0.4492632   0.0140622  -0.2663237
  -0.2203811   0.0853083   0.2219165   0.0773052   0.0771350  -0.3351440
  -0.2402415   0.2646735   0.4382920   0.2141475   0.0202927   0.3001731
  -0.0311727   0.2192953   1.2144125   0.0625418   1.0994295   0.0250532
  -0.0417711   0.1726731  -0.2304763   0.4521430  -0.0079004   0.4517330
  -0.3045109   0.0677785   0.3441476   0.0742358  -0.1467582  -0.3036878
  -0.5122947  -0.2714020  -0.2915798  -0.0073077   0.5762031   1.4940090
   0.2332129  -0.2965783   0.1947498   0.3753232   0.2398013  -0.4039688
  -0.1219292  -0.6159505  -0.0372864  -0.0452938  -0.5160505  -0.0566264
   0.3548380  -0.3205236   0.1371079  -1.4374758   0.0810329  -0.0982434
  -0.3814107  -0.0168587  -0.0371170  -0.0903854  -0.0369470   0.2096929
  -0.2593317   0.0745643  -0.4290419  -0.0215506  -0.0187272   0.4816118
  -1.1597475   0.5264598   1.0338906   0.3446079   0.8233979  -0.4446482
  -0.0814602   0.2526884  -0.1929975   0.4302145   0.2449943  -0.1453829
  -0.3715233  -0.0307162  -0.2550868  -0.0311635   0.1787973   0.1480380
  -0.1055109   1.3341280   0.0942336  -1.0173816  -0.2295363  -0.3309967
   0.0781216  -0.3049081  -0.5807197   0.0348059  -0.9194148  -0.9232597
   0.6020451   0.7657457  -0.9364162  -0.1676360   0.1430890   0.2049941
  -0.1617594   0.6553295  -0.2167978   0.4250739   0.0535118   0.5932152
   0.1145354   0.0288494  -0.1740874  -0.2423108   0.3496600  -0.2372217
  -0.7829287  -0.0980358  -0.2599466   0.0651025  -0.3025497  -0.2272406
   0.2380337   0.1219182   0.2146647   0.4681414  -0.7888148  -0.1473436
   0.2487288   0.2220680  -0.1741624   0.3186010   0.0788598  -0.9209616
  -0.0222972   0.2880754   1.0680725   0.0090980   0.1328193  -0.1565604
   0.2326001   0.3440903   0.9936829   0.0047858  -1.3663629   0.3899414
  -0.1223374   0.2508219   0.1513610  -0.0168289  -0.2046446  -0.1234659
  -1.3276179   1.0240270   0.4080310  -0.2773318  -0.2306516   0.3473655
  -0.2962371  -0.4600847   0.5509017  -0.0976656   0.7015376  -0.1160389
   0.1420686  -0.0993687   0.3217629   0.2555658  -0.3651826   0.2296469
  -0.0814631  -0.2804853   0.4781402  -0.1575471   0.0086890  -0.1357007
  -0.3298051  -0.0425751  -0.1475250  -0.8341833   1.2957694   0.4911857
   0.2386254  -0.0721767   0.0096112   0.0038813  -0.4512317   0.2688004
  -0.2433993   0.4997695   0.1200013   0.0117091   0.0733778  -0.1434384
   0.0471899   0.2199701  -0.3614974  -0.4675731  -0.1844058  -1.0281291
  -0.0280967   0.1478334  -0.0700141  -0.0241213   0.4790207  -0.3673549
  -0.1369185  -0.1526373   0.1386823  -0.1828110   0.2190133  -0.1146252
  -0.0190242   0.1491949  -0.1536951  -0.0514689  -0.1816870  -0.6093014
  -0.1873414   0.1158739   0.1319252  -0.1134290  -0.0132217  -0.4907202
  -0.2739430  -0.0844104  -0.3401950   0.1483297  -0.0316255   0.3793400
  -0.5453892  -1.1737261   0.9230021   0.4067150  -0.2264004  -0.6148175
  -0.3181293   0.2067742   0.1262451  -1.0932927   0.7753265  -0.4411654
  -1.1513155  -0.1461796   0.4137486   0.0538193   0.0142228  -0.0063961
   0.1005638   0.1042066   0.3567104  -0.2787898   0.0268080  -0.8669619
  -0.1167287   0.1164046   0.1417221  -0.5019579   0.1981662   0.2646758
   0.0864831  -0.1790777   1.3901233  -0.1091601   0.1115636  -0.1487225
   0.2881305  -0.5443996   0.2178082   0.3290377   0.1786914  -0.9969080
  -0.1857811  -0.1122063   0.0303501  -1.3721727  -0.0565587   0.7937646
   0.7742107  -0.1494216  -0.6012283   0.1111710  -0.0166397  -0.0822961
  -0.0604387  -0.2125528   0.3956264   0.1739915   0.3988968  -0.2873801
   0.0926223   0.0243729   0.1479949  -0.0139456  -0.4328200   0.0212873
   0.2058007   0.5332435   0.7476672   0.1022915  -0.2426695   0.2598323
  -1.1028476   0.2367152   1.0536118  -0.1759041   0.8902484   0.1851982
   0.0264075   0.1267762  -0.0065232  -0.4017282   1.0787397   0.5679661
  -0.7332536  -0.5780053   0.0188422  -0.1685733  -0.2264707  -0.0996737
   0.2114947  -0.1334602  -0.7136297  -0.3224460   0.4016911   0.2011139
   0.2822543   0.0049825  -0.4393341  -0.3137626   0.2734694  -0.7992306
   0.0545443  -0.2140059   0.1335013   0.2081355  -0.5678907   0.3808081
  -0.0605658  -0.3634251   0.0695566  -0.0281370  -0.1289882   0.0321306
   0.0201964  -0.0994493  -0.3833130  -0.4321465  -0.6743135  -0.5984512
  -0.1148879   0.0489117   0.2293073  -0.4137059   0.1777950   0.0839579
  -1.0262010   0.9479313  -0.4139884  -0.3605726   0.1099303   0.1147322
   0.4465854   0.1845340  -0.0854562  -0.5759865  -0.1151206   0.1455253
  -0.1836205  -1.0234696  -0.2936220  -0.2550460   0.1299503  -0.1187175
   0.4189713   0.5015167  -0.7713216   0.3723388  -0.8376457  -0.8691356
   0.0581711  -0.0954985   0.1308144  -1.0032111  -0.5536193  -0.0326944
  -0.3671444  -0.1657502   0.1903571  -0.0834048   0.3087371   0.3476725
  -0.0914313   0.0088587  -0.0350515   0.5266283  -0.1471577   0.6449074
  -0.1871572   0.1916776   0.0801537   0.2755699   0.3947696   0.4054937
  -0.2893170  -0.1649661   0.7523613  -0.1231122  -0.4599072  -0.2548484
   0.6384317   0.3825467   0.6366359  -0.2330981  -0.3224429   0.0631391
   0.0581335  -0.3646550  -0.0194039   0.1393292   0.5854673  -0.2478052
   0.9715445  -0.5480010   1.0153035  -0.3714228  -0.3521843   0.1500138
   0.8635020   0.0244040   0.3826514  -0.4192906   0.9748170  -0.6821636
   0.1461385   0.2216570   0.0673757  -0.6947367  -1.9428473  -0.7201576
  -1.4581786   0.8918640   0.9390081  -0.0031096  -0.0887725   0.0462412
   0.7605096  -0.2102944  -0.8472563  -0.6629991  -0.6708018  -0.2508468
   0.1165404  -0.0859564   0.0746287  -0.7463603   0.2560152  -0.7224057
   0.2161782   0.8794234  -0.1306756  -0.0526641  -0.3007926   0.2897196
  -0.4908323   0.1728192   0.2269605  -0.2439520  -0.7416723  -0.0087038
   0.3826900  -0.0537959  -0.1725911   0.2419777  -0.0950296  -0.1437458
   0.7700735  -0.2868022  -0.0677898   0.1194637   0.0191484   0.3441509
   1.0468784   0.1703889   0.4159744   0.1485679  -0.7660635  -0.9442676
   0.2695150   0.0305270   0.0589920  -0.5797574  -0.4816920  -0.0412578
   0.6801360   0.0259011  -0.7525612  -0.2681316   0.0458104  -0.1278045
  -1.1047153  -0.5532341   0.3317547  -0.3021386   1.0065363   0.6181688
  -0.1107499  -0.0254902   0.2997320  -0.1314841  -0.0750104   0.1211160
   0.0972022  -0.0802217   0.4168544   0.1953971   0.3067918  -0.2073759
  -0.5481460   0.8413654  -0.5540000   0.9011565   1.0032814   0.2560553
   0.2841223  -0.0676349  -0.1141023   0.3932158  -0.0936500   0.0754104
   0.0617858  -0.3302803   0.0239609  -0.3006620  -0.0335603   0.1012098
  -0.3174972  -0.0301352   0.1356064   0.7596214   0.4835526   0.2696120
   0.1267718   0.1730504   0.2716382  -0.0462335  -0.6307117  -0.2559021
   0.1608557   0.8736951   0.4454854  -0.0325138  -0.1149531   0.1253394
  -0.2835228   0.4324815   0.5154156  -1.0089992   0.6423615   0.6696657
   0.2621747   0.1616466   0.4454012  -0.1646078  -0.9898802  -0.6836636
   0.7811921   0.2346333   0.5709584   0.1933475  -0.1110116   0.0156336
  -1.1064286  -0.3747996  -0.0189197  -0.2006801   0.3485591   0.5832390
  -0.0774030  -0.0444594  -0.1333197   0.1004354  -0.3463412   0.2232482
  -0.4647366   0.0513547   0.1590931   0.0135221  -0.0689952   0.1054969
  -0.1180721   0.0402380  -0.1225634  -0.0881415   0.0252900   0.0580580
  -0.0463922   0.3311544   0.1205004  -0.2034170   0.3210748  -0.4844152
  -0.0681549   0.2811839  -0.0323936   0.0742201  -0.0999300  -0.3081888
   0.2752735  -0.1049179  -0.1408495   0.2775227  -0.6151331  -0.5517809
   0.2160439   0.2938770   0.0492921   0.5996980   0.0325894   0.0301171
  -0.7987538   1.3089746  -0.3853901   0.0947148   0.1234670   0.1962007
  -0.6323977   0.1068044  -0.1169697   1.0159294   0.3199766  -0.2759925
  -0.1744473   0.1639949  -0.0177355  -0.2488534  -0.0924558   0.1797737
  -0.2441704  -0.3428965  -0.3455442   0.0143508   0.1147095   0.1754122
  -0.1765443   0.1274059   0.8011883  -0.1969067   0.7614910  -0.0622806
  -0.1561117  -0.2180171   0.0443271   0.1460473  -0.5291472  -0.0831097
  -0.5157951  -0.3974690  -0.0542751  -0.0762301   0.2103284   0.0928226
   0.6336995   0.0393974  -0.1427629   0.0671414   0.4344721   0.7271998
   0.0492017  -0.2728206   0.0266954   0.2045141   0.9157193  -0.6918394
   0.6205078   0.5731849  -0.3292978   0.2437029  -0.1421444   0.0601493
   0.6788418   0.0095969  -1.9725571  -0.3703163  -0.7134636   0.5594237
   0.1478398   0.2318523  -0.1113088   0.3075272   0.3495161   0.1186069
  -0.9119546   0.2633801  -1.1745402  -0.0670781  -0.0822498   0.1024287
  -0.5128639   0.1857113   0.9113418   0.2659560   0.5317464  -1.3417665
   0.2159344  -0.0126249  -0.0024069   0.3625693  -0.4580239  -0.4953233
   0.2702567  -0.0935163  -0.1099207  -0.0190353  -0.0099677   0.0206446
   0.1543841   0.4581667   0.9362061  -0.4332175  -0.3427669  -0.2306375
  -0.1062280   0.0758750  -0.0373330   0.4729545   0.0185583  -1.1096498
  -0.6238689   0.1239311   0.1610758  -0.0314314   0.1143832  -0.0552633
   0.1469993   0.0673870  -0.0638368  -0.1089446   0.0081683  -0.1522264
   0.0052158   0.0469983  -0.0839805   0.4012296  -0.2327117  -0.1618543
   0.1474328   0.7553775   0.3049104  -0.2363900  -0.0335687   0.1110231
  -0.0726623  -0.7003604   0.2053058  -0.6633448   0.3284329   0.3411853
  -0.0389312  -0.5530469  -0.0462732   0.7902102  -0.2242553  -0.1241501
  -0.5357275   0.0907238   0.2148476   0.4080881  -0.0653092  -0.0150769
   0.1296454   0.3355804  -0.1699981   0.4373317  -0.3799331   0.0284925
  -0.0620458  -0.1840566  -0.1884675  -0.9180434  -0.0660948  -0.2128963
   0.1380988  -0.3395548   0.2071319  -0.3335596   0.0363964   0.0611009
  -0.7261330  -0.5155389   0.5224944  -0.2004124  -0.5280084   0.0295547
   0.0170731   0.3886994   0.0190412   0.0368636  -0.3960900   0.0949501
   0.8557433   0.9422986   0.3501980   0.2525139  -0.1426036  -0.2216671
  -0.0647700  -0.4645904   0.1804350   0.4010159  -0.2379367  -0.0049487
   0.0163327  -0.0740609   0.0704191   0.3641499   0.3670083   0.1238164
   0.5385558   0.7669830  -0.5042207   0.0450408  -0.2296972   0.0362129
  -0.1082560  -0.2930615  -0.0056928  -0.1653826  -0.2527803  -0.1020194
   0.2681315  -0.1636337   0.0307665   2.0798195  -0.6706795   0.8927626
  -0.5139887   0.1059789  -0.2520293   0.2425823  -0.3405094   0.0480326
   0.3430513   0.3408635  -0.2469458   0.7273010  -0.7922153  -0.1461630
   0.1655622   0.2719317   0.2400749   0.6687822  -0.0635151   0.1062461
   0.0821134   0.6256216   0.1802455  -0.3501371  -0.0438213   0.0504015
  -0.7720902  -0.8081005   0.1747580  -0.7162055   0.1010988  -0.7028532
  -0.1236709  -0.1512254   0.1009966   0.5185480   0.3477674  -0.1705774
  -0.4129385   0.7487750   0.5082920  -0.1155294  -0.2023653  -0.2876760
  -0.4537211   1.5057061  -0.2488681  -0.1394542   0.6028849  -1.0629006
   0.1627518  -0.1213780  -0.0044365  -0.7220488  -0.6057191   0.3159907
   0.2363603  -0.0578844   0.0419089   0.0639199   0.0558706   0.0480887
   1.2052025  -0.5868040  -0.2278858  -0.0380394   0.0906030   0.0860616
   0.2537149   0.0040130   0.0356299   0.0758374   0.3584386  -0.0728245
   0.2070556  -0.1838397  -0.2396880   0.0522034  -0.1492070  -0.0026898
   0.0970774   0.7834276  -0.4436097  -0.0276576  -0.6723907   1.2540115
  -0.0595871   0.2121148   0.0649933  -0.4561831   0.0351731   0.4163112
   0.1265621   0.6692387   0.2793856  -0.2156181  -0.0213613  -0.1754044
  -0.2048099  -0.3173963  -0.1597778  -0.1973854  -0.6907354  -0.1318936
  -0.2117753   0.0728136   0.0171338  -0.0583917  -0.2476718  -0.0395363
  -1.2681603   0.7298836  -0.4891523  -0.2414957  -0.0313115  -0.1507727
   0.9821888   0.4571450  -0.0570848  -0.7737438   0.0410418  -0.0075040
   0.0295583   0.1233175   0.1392383  -1.0155349  -0.0000602  -0.5971762
   0.6505802  -0.3590236   0.5180940   0.1682587   0.0991548   0.1461387
   0.1119282   0.9962483  -0.2341536   0.1872440   0.7321812  -0.2331850
  -0.0079654  -0.1828644  -0.0513588  -0.1240824  -0.3468070   0.2498855
  -0.5363910  -0.1806367   0.5025653   0.2950578  -0.0385315   0.3746663
   0.1050528  -0.2149186   0.1808609   1.0641745   0.2192417  -0.4542282
  -0.0720348   0.1481638  -0.2041304  -0.0627183  -0.5744022   1.6702810
  -0.2426223   0.3045129  -0.1122652  -0.0609772  -0.1781683   0.1382318
   0.4534611   0.2740798  -0.4329367  -0.7213266  -0.9966522   1.0051221
   0.3971789  -0.1671028  -0.0218269   1.7091267   0.5322597   0.0562744
   0.1418168  -0.2295666  -0.0636325   0.2269231   0.0114055  -0.0210444
  -0.1703915  -0.8896587  -1.4017802  -1.0744973   0.3126766  -0.2090692
   0.1222571  -0.0823568   0.2279411  -0.2897056  -0.0667286   0.4671004
   0.2492098  -0.1509617   0.0884308   0.0116611  -0.1477057  -0.2320602
  -0.2607529   0.3940589   0.6800046   0.0548579  -0.6696845  -0.4537642
  -0.0814044   0.0042210  -0.2560556  -0.4279506   1.1646374  -0.7098805
  -0.3553441   0.0275819   1.2037195  -0.1451389  -0.1292072   0.0627244
   0.4815250  -0.5890370  -0.3699916  -0.3551938   0.0347359   0.2621774
   0.0940886   0.0366658  -0.0123337   0.7196686  -0.3141712   0.2715009
  -0.9192473   0.8549795   0.4698985  -0.2354248  -0.1023224  -0.1538538
   0.5533114  -0.7205424  -0.0591014   0.2821349   0.6080186  -0.3685285
   0.0752168  -0.1418725   0.3689238   0.4449829  -0.4127965  -0.5150788
   0.4699102   0.2305194   0.0600749  -0.0494480  -0.0374737   0.0248473
  -0.1051080  -0.1103100   0.1834903  -0.9213066   0.2160433   0.4154160
  -0.0056185   0.2231003   0.3087868  -0.1084894   0.1265189   0.4954851
   0.1632648   0.3574260   0.4105220  -0.2042844   0.3400018  -0.0810978
   0.0082107   0.2526085  -0.0865441  -1.0007671  -0.9672122  -0.6645550
  -0.1348929  -0.3302338  -0.2244133   0.0707928  -0.3231077  -0.9270747
   0.7134536   0.2490738   0.7888621   0.1399118  -0.1688682   0.2320347
   0.5703449   0.7354060   0.8840662   0.4784411  -0.8955772  -0.9934579
  -0.1128436   0.0695699   0.0936244  -0.7079006  -0.0078379  -0.2175453
  -0.6432971  -0.0174930  -0.2995584   0.2809341   0.1075978  -0.2753409
   0.2876236  -1.0378199  -1.6128975   0.0985662  -0.8319961  -0.9508297
  -0.1933607   0.1019541  -0.0750397   0.2036011  -0.1271292  -0.1223644
  -0.6858219  -0.3257672  -0.0563921  -0.0501677   0.1539832   0.1180891
   0.4154930   0.0848944   1.0758870  -0.6376074  -0.0380755   0.5365065
   0.0718879   0.2131984  -0.2701500  -0.4314125  -0.4742056  -0.5951988
  -0.4180474   0.4667281   0.3299998   0.2760766   0.0033776  -0.2320720
   0.6635348  -0.4314891   0.4430011   0.3862518  -0.1015907   0.5042799
   0.0712654  -0.0685856   0.0295765   0.7382681   0.0078998   0.1106893
  -1.5083410  -0.0965080  -0.5615350   0.0526221   0.0471158   0.1676697
   0.4429809   1.5710823   0.4829533   0.0303829  -0.6479381   0.1252314
   0.0115004   0.2862442   0.1644113   0.2481296  -0.4751221   0.2786395
   0.2533649  -0.7899572  -0.9377220   0.2943553  -0.2447745   0.1103835
   0.4964858   0.2933161   0.4287582   0.4355455   0.2640993   0.4992330
  -0.1707304  -0.1065544  -0.0322543  -0.3243080  -0.1060752  -0.1158646
  -0.1565107  -0.0247608  -0.4166172  -0.1198175   0.0895102  -0.3089265
  -0.9706564   0.5421729   0.1306356  -0.8066289  -0.6941249   0.0249726
  -0.3251301  -0.2251256  -0.1524556  -0.1464006  -0.2680471   0.1944098
  -0.2919436  -0.2213572   0.0032449  -0.0166200   0.1954936  -0.1027433
  -0.1901466   0.1716912   0.8943794   0.0733688   0.2946514   0.3969179
   0.1285974  -0.0900724  -0.5997202  -0.5465257  -1.0384542  -1.1614884
  -0.5632912  -0.1930456  -0.4047555  -0.1296373  -0.1051115   0.1936594
   0.7984700   0.0255042   0.8361600  -1.1431704  -0.4523975  -0.2151369
   0.1334344  -0.1094150  -0.0012708   0.3144401  -0.6970663  -0.2029310
  -0.2758263  -0.4534194   1.0296388  -0.2021497  -0.0288909   0.3394030
   0.2892648  -0.4777678  -0.2999145  -0.8137474  -0.7417914   0.4077172
   0.0468416   0.0121531  -0.1243498  -0.1880623  -0.3365345  -0.1509154
  -0.1729983  -0.2589322   0.5182078   0.0092240  -0.1864941  -0.1305027
  -1.4729241  -1.1453135   0.3371934   0.0403887  -0.2064818  -0.1659567
  -0.2622913   0.3188550  -0.2989804   0.2627556  -0.0221079   0.8294111
   0.1045251  -0.1428420   0.0782602  -0.3477893   0.0043758  -0.1585185
   0.0997785   0.9370373   0.4145343   0.0830020  -0.1778586   0.0846294
  -0.1817333   0.0062125  -0.3188441   0.4093827  -0.6963424  -0.4822348
  -1.0316161   0.9137623   0.0694601   0.4373550  -0.2218364  -0.2179088
   1.3654763   0.2156614   0.3829135   0.9249146   0.5121198  -0.3420845
  -0.1102499   0.3147259   0.0310250  -1.0905993  -0.5108215  -0.0789467
   0.9706739   0.8820143   0.0103901  -0.0895779   0.1996063  -0.4888552
   0.2866567   0.2891360  -0.5161752  -0.4093684  -0.2814343  -0.5634482
  -0.1695282   0.0670140   0.1550527  -0.4159689   0.1074110   0.1996206
   0.4556565  -0.4323798  -0.9473909  -0.1780337  -0.2135294  -0.1533159
  -0.2899771   0.7923037   0.4462026   0.0741707  -1.1706579   0.3054553
   0.2241838  -0.0626591  -0.0827973  -1.6884236  -0.1194944   0.7316166
  -1.0995326  -0.3806774  -0.5703694   0.4369604  -0.1018954   0.1479829
  -0.1360257   0.0979671   0.7971716  -0.0464852  -0.2678248   1.1327871
   0.2179242   0.1055333   0.0350289   0.2309453   0.7022337  -0.1150329
   0.7068472   0.9328365  -0.3320885   0.0081469  -0.0056332  -0.0929528
   0.0058952  -0.7546192  -0.4116342   0.4219531   0.3486861  -0.1355460
  -0.3616803  -0.1213543  -0.3006983  -0.3398395  -0.1802619  -0.4273030
  -0.3400813  -0.1489059  -0.5646527   0.3190764  -0.1449544  -0.1414943
   0.2162063  -0.6503485   0.1855034   2.3902384   0.1828045  -0.7631897
  -0.1503112  -0.1306210  -0.1410611  -0.1684477  -0.3948047  -0.3539289
   0.6873476  -0.5134406  -0.3472208  -0.2995508  -0.1429841   0.0316471
  -0.2147737   0.1947666   1.2558716   0.1556067   0.2350575  -0.7946848
   0.2728652  -0.1996490  -0.1136509   0.2459158   0.1107402   0.7223244
  -0.3088561   0.5642761   0.4871025   0.0080361   0.3228516  -0.1829240
  -0.0691522   0.4489496  -0.6674380   0.2397379   0.0762652   1.4780315
   0.4103499  -0.0625806  -0.0164112   0.1945026   0.3857580   0.1148065
   0.1995555   0.6761483   0.1748559  -0.4338197   0.0044897   0.1176224
  -0.6781093  -0.3665436   0.6158236  -0.4764463  -0.4798672   0.9803377
   0.0403573   0.0496415  -0.1001190   0.3627584   0.2464709  -0.5047714
   0.3125545  -0.2873394  -0.8231264  -0.4013925  -0.0797546  -0.0450626
   1.6822709  -0.4569769  -0.1648398  -0.3372580   0.1720781   0.4328125
   0.0998796   0.0923411   0.2326944  -0.0257700  -0.0807028   0.6367676
   0.0267807  -0.1850197   0.5452242  -0.2249508   0.0847770   0.0109164
  -0.8117384  -0.1256006   0.8413257   0.4583975   0.3677183  -0.1536940
   0.3607844  -0.1100976   0.1454654   0.2523303  -0.3737612  -0.1372086
   0.1330364  -0.0535817   0.3082331  -0.2282431   0.0420017   0.1089376
   0.4798960   0.0361067   0.0004623  -0.3761792   0.0659863   0.1458047
  -0.1686725   0.0786529   0.0243531   0.0550731   0.3142713  -0.7686997
  -0.1811674  -0.5610554   0.1134660   0.3110746   0.0624663  -0.0108267
   0.7451409   0.0608739   0.1819740   0.2030285  -0.4023703  -0.1685214
   0.2686270   0.1047069  -0.0839272  -0.5833815  -0.5106150  -0.3825198
   0.6661961   0.3705142   0.0311613   0.0187354   0.3027261   0.1178322
   0.0376156   0.3752984   0.1348563  -0.0072464  -0.3224024   0.0362584
  -0.3716169   0.0381423  -0.3316938   0.0584440  -0.0465517  -0.7007306
  -0.9151473  -0.7186703  -0.0511398  -0.3548892  -0.1805880  -0.1189673
  -0.2110677   0.2295541  -0.3015649  -0.8088942  -0.0906226  -0.0309371
  -0.0613815   0.0615163  -0.1470938   0.1764412   0.3390839  -0.1357595
  -0.5356354  -0.3450037  -0.2570065  -0.0636763  -0.0876636  -0.1655401
  -1.4429308  -1.1487179  -0.6231280   0.5015952  -0.4798075   1.3160651
  -0.1041373  -0.3459596  -0.0304754  -0.0867140   0.1893005  -0.3159330
   0.1499398   0.5545916  -0.1901923   0.0996460  -0.1403175  -0.2780532
  -1.0007979   0.1533245  -1.2052165   0.5693699   0.4432571   0.8580604
   0.2956035  -0.1520879  -0.0177225   0.6555339   0.6458316  -0.1573233
   0.0797587   0.0401951   0.2106242   0.3544797  -0.2824755  -0.0293461
   0.8067388  -0.0944378  -0.1944687   0.2943870  -1.0409242   0.8197508
   0.0284638  -0.2286255  -0.1951542   0.2230829   0.3839689   0.4023683
   0.8345095   0.5228763  -0.3148935  -0.1893135   0.1015109  -0.0068154
   0.0926722  -0.1981611  -0.4104572   0.6167687  -0.1154630  -0.0593590
  -0.1376242  -0.0352699   0.2953225  -0.2325953   0.0246967   0.2275885
   0.5767847   0.0374488  -0.2965547   0.2972151  -0.2671276   0.0308930
   0.5416520  -0.1308739   0.6149950   0.8055100  -0.2771102  -0.3052187
   0.0205294   0.0175486   0.2459729  -1.2257922  -0.0764722   1.9880028
  -0.4468587  -0.1186031   0.4964856  -0.0285081   0.0707674   0.2123226
   1.1128091   1.3125962   1.8218051  -0.2127640  -0.1633313   0.0472974
  -0.0113016   0.1347642   0.0150060  -0.1774670  -0.1877623  -0.3982413
  -0.1238130  -0.0052453  -0.3072508  -0.2002465  -0.3033548  -0.1858757
  -0.2685598   0.1008011  -0.4796613  -0.5305449   0.2099319  -0.9751450
  -0.1367055  -0.3900980  -0.0183046   0.0388337  -0.2431352  -0.1161887
   0.1415821  -0.3233525  -0.3157977  -0.1690390   0.1324973  -0.0358210
  -0.4714070  -0.8669123   1.1078595  -0.1089344  -0.1044166  -0.1063716
   0.1103125  -0.0578927  -0.2336713  -0.3708382   0.1095915  -0.7917632
   0.2478414  -0.1380169   0.1166489   0.1228259  -0.2879796  -0.0814928
  -0.2895966  -0.1725765  -0.1789086  -0.1522486  -0.4588571  -0.1785595
   0.3473685   0.1963780  -0.0379254   0.4629612   0.9433462  -0.4089614
  -0.3377752   0.3131811   0.4612987   0.0030992   0.1163370  -0.1550912
   0.2851274   0.4068573   0.7146053   0.5092081  -0.1373252  -0.5148432
   0.2398715   0.1418610  -0.1668439  -0.8659635  -0.4636281   0.0355401
  -0.3521401   0.7426284   1.0163294   0.0203618  -0.1439673  -0.0423883
  -0.4197514   0.2021930  -0.3159455   0.0897798  -0.1993480   0.0164077
  -0.0693388  -0.0405716   0.3863746  -0.3849917   0.0921258  -0.0489208
  -0.1914932  -0.2151144   0.5705474   0.2536347   0.1244004  -0.2544856
   0.2344274   0.8164005   0.7529584   0.0526316  -0.1456428  -0.0222550
  -0.0983565  -0.0297599  -0.2250914   1.4442660   0.9581156   0.5115553
  -0.4121478  -1.0843577  -0.0599050  -0.2115770   0.0649448  -0.1748583
  -0.8115058  -0.7193485   0.3968252  -0.0558455   0.6119684   0.2509889
  -0.1688134   0.1189640  -0.0182253   0.4473495   0.7800814   1.0078390
   1.2517194   0.3976510  -0.4815630   0.1023382   0.1181438  -0.2187033
   0.1812311  -0.3995150   0.1699225   0.2846701  -0.4204798   0.1714670
   0.0239159   0.1310496  -0.0018745  -0.2563342  -0.3177742   0.7677188
  -0.6078384   0.4146215   0.2546574   0.0881929  -0.1617209  -0.1443786
   0.1771570  -0.2769661  -0.3104640   0.7255775  -0.1699673  -0.4966046
  -0.2360330  -0.0752467  -0.0990944   0.3307639  -0.9671662   0.5372733
  -0.8853803  -0.0978245  -0.3476684  -0.3634345  -0.1786657   0.2114717
  -0.5467463  -0.3274011   0.6363750  -0.3622463  -0.5752768  -0.0608061
  -0.2285069   0.0025994   0.0518592   0.2522281   0.0089078  -0.1596184
  -0.4108703   0.2947874  -0.4028963   0.0174751   0.1729398   0.0172841
  -0.6238873  -0.1594680  -0.7410735  -0.2910298   0.0091946   0.1678272
  -0.0268015  -0.0465612  -0.0727232  -0.2056509   0.1331905   0.2616424
   0.6984361  -0.1388995  -0.7481733  -0.2924673   0.1846325   0.3519651
   0.0638453   0.0801100   0.0392346   0.4071108   0.1282921   0.6631011
  -0.1424013   0.3574839  -0.1339774  -0.6854989   0.7553802  -0.2627870
  -0.2340627   0.7824587   0.3284425  -0.0883912   0.2340457   0.1383620
  -0.1411553   0.1797645  -0.0528946   0.1072709   0.4317336   0.8499323
   0.3359075  -0.0805299  -0.0883333  -0.3900389  -0.1626847  -0.5876701
   0.4744662   0.5701851   0.1267778  -0.0349235   0.0511588  -0.0106393
  -0.5515905  -0.3730714  -0.1627239  -0.3341057   0.6876738   0.0299406
  -0.1629359  -0.0432846   0.1302142  -0.9756853  -1.0756934   0.1379790
   0.8943721  -0.3793825   0.0002533  -0.0662229  -0.0298340  -0.0195484
  -0.4000281  -0.3327863  -0.7613683   0.0528329   0.6811359  -0.8145493
   0.1728903   0.0189240  -0.1460891   0.4787251  -1.0392761   0.4902509
  -0.4104974   0.7510157   0.6280194  -0.0173654   0.1322358   0.4447284
  -0.4634738  -0.0934650   0.6065112  -0.0188586   0.0665576  -0.0764600
  -0.1791149   0.0476693   0.2302140   0.4084211   0.1454069   0.3386348
  -0.1899340  -0.8984109  -0.9285177  -0.0156643   0.0940455   0.2005388
   1.0510943   0.1424496  -0.5323573  -0.4310369  -0.0083049   0.6833703
   0.1447917   0.2162904  -0.1840147   0.7273541  -0.1079347   0.0636384
  -0.8879310   1.1378981  -0.5960866   0.1506158  -0.0878154  -0.0359584
   0.1479883  -0.6721558  -0.2580946   0.3908603   0.1119873  -0.3654987
  -0.4038692   0.3478852  -0.0508239  -1.2906328  -0.2112910  -0.7537077
   0.5341680   1.2125325  -1.3785937  -0.2556383   0.0193227  -0.1453717
   1.0440199  -0.3206078  -0.1826616  -0.8521245   0.1874206  -0.8747303
  -0.0480272   0.2170001  -0.1435339  -0.1094588   0.5247119  -0.1492542
   0.0675140  -0.3603259  -0.0803372  -0.2010904  -0.1988034   0.0297499
   0.2988259  -0.2609156   0.2062190  -0.4890155   0.1845502  -0.0754392
  -0.2702917  -0.1051478   0.0951277  -0.5775063   0.5977163   0.2194649
   0.4244145  -0.0352291   0.4773358  -0.0544356  -0.2322429  -0.0899756
  -0.0214591  -0.2933515  -0.1401589  -0.2752173  -0.2567402   0.5443073
  -0.1920967   0.2506882  -0.1775227   0.1582142   0.2597512  -0.2520234
   0.7493119   0.0911570  -0.5921143   0.1556547   0.2379094  -0.1627567
   0.5241171   0.5806785  -0.2782777   0.2191381   0.0697530  -0.3099613
   0.0483665   0.0088862  -0.0144344   0.2211347  -0.3929429  -0.1669832
   0.6530050   0.3520276   0.2281211  -0.0970358   0.4487931  -0.4063985
   0.0991124   1.1066622   0.8667392   1.5696768   0.5388016  -0.7754392
   0.0612613   0.0855103   0.3197537   0.9525814  -0.3856583  -0.6113954
  -0.7999715   0.9321364   0.4339311   0.1072537  -0.1135601  -0.0439886
  -0.6880217  -0.0726679   0.3031236  -1.1613585   0.0984970   0.6099559
   0.2171292   0.0102382  -0.0344271   1.1117023  -0.7034076  -0.2207288
  -0.1871814   0.8929148  -0.2267435   0.0921908  -0.0693908   0.2305271
  -0.0007040  -0.0258748   0.2241835   0.5241927  -0.7107788   0.3157817
  -0.0592229   0.2059402  -0.0647646   0.7251204   0.8853109   0.7930683
   0.4422348   0.6992340   0.0092761   0.0329147  -0.0212112   0.0525446
  -0.5840674  -0.4982098  -1.1799011  -0.5961931  -0.2393018  -0.6906285
   0.2395598  -0.0542190   0.1225531   0.4846295  -0.2534741   0.6470342
  -0.2447645  -0.8657630   0.0584591  -0.2059788   0.1393754   0.0276707
   0.0853766  -1.2221304  -0.2216247   0.0203609  -1.0463234  -0.8245714
   0.1973011  -0.1046057   0.2919674  -0.3420490  -1.1653771  -0.2017694
  -0.1338444  -0.7659572   0.4137124  -0.1991483  -0.1196023   0.0976108
  -0.7912543   0.3416745  -1.4423282  -0.3418741   0.6866178  -1.7874748
   0.1482138  -0.0180826  -0.0730278   0.0646631   0.2398163  -0.2581199
  -0.2314747  -0.7679777  -0.2159108  -0.0860752  -0.3367375  -0.0514216
   0.4080030  -0.2351029  -0.1206662   0.3553660  -1.1485842   0.3356813
   0.0656016   0.0378314   0.3707057  -0.2222248   0.1284836   1.1774729
  -0.5421724   0.1239254  -0.0068352   0.2727723  -0.0515963   0.3317807
   0.5036818  -0.8287486   0.8025379  -0.2885200   0.2400828   0.8542987
  -0.4438995   0.2031680   0.2406437   0.5844622  -0.6365083  -0.2249634
  -0.0652854   0.4952014   0.0947964  -0.0412186   0.0361513  -0.2775597
   0.1779795   0.5287098  -0.7625999  -0.5072909   0.4030584  -0.0865668
  -0.0655702  -0.3344395  -0.1207210   0.7061542  -1.2469242   0.8782084
  -0.3636112   0.4698604   0.1182376   0.0896878  -0.0418703   0.2828700
  -0.4058056   0.5337455   0.0147848   0.8232256   0.0448620  -0.0689509
   0.2840907  -0.1501974  -0.0208481   0.7646008  -0.7355918   0.4275781
  -1.0811814  -0.1019185   0.5738432  -0.1349635  -0.1549504  -0.0061922
   0.0047023   0.1831267   0.1183513   0.0396989  -0.3023590   0.2357298
   0.1143173   0.1397975   0.2111724   0.0528777   0.0210494   0.0735860
   0.1087917   0.6826856   0.5427848  -0.3622112  -0.3467795   0.1047704
  -0.1639433  -0.4633562  -0.4602779  -0.6202675  -0.0703277  -0.2542006
   0.1424923  -0.0936063   0.1044396   0.8240727  -0.2837954   0.3877661
  -0.2960213  -0.3105432  -0.6030203   0.0368730  -0.1624954   0.3057109
  -1.2739212   0.0655069   0.6224701   1.6389413  -0.2833288  -0.3327140
  -0.0876117  -0.2738769  -0.0304140  -0.3736323  -0.6568725  -0.0704056
   0.4929803  -0.2831586   0.1489760  -0.0687184  -0.1397705   0.0800377
  -0.9673512  -0.4176603   0.2313118  -0.1101279  -0.2102663   0.0745893
  -0.4011518   0.1545664   0.0646877  -0.3585835  -0.0966290   0.6908044
  -0.4284468   0.3150196  -0.3356789  -0.0158635  -0.1907737  -0.0432012
   0.0250477  -0.0569207  -0.4357210  -0.0489932  -0.1693842   0.1170349
   0.1533812  -0.2257540  -0.0032858  -0.2475159  -0.0779721  -0.0084680
   0.1615319  -0.2057896   0.4639379  -0.1248477   0.3692818   0.1730029
  -0.1248010  -0.1601668  -0.4295483   0.8720132   0.5250735   0.3102838
   0.3073042   0.1568118   0.0339902   0.3716690  -0.1244542  -1.0536086
  -0.5508403   0.0407496   0.3471278  -0.0133845  -0.1588083  -0.0106432
  -0.2535764  -0.1459454  -0.2817857   0.0025785  -0.1793933  -0.1323504
   0.0159087  -0.2558152  -0.3912950   0.0234330  -0.4916419  -0.0143563
  -0.0709928  -0.0340802  -0.8230165   0.1866146  -0.1970588   0.2993997
   0.4915737   0.0837322   0.1686829   0.1769213  -0.1017346   0.3188587
  -0.0210460  -0.0555061  -0.0044117  -0.2523363   0.2252217   0.4075272
   0.5048883   0.0859982   0.0202905  -0.0046407   0.1678650  -0.0262635
  -0.0318577   0.4030243   0.1870554  -0.1761195   0.4779339   0.2328166
  -0.0479702  -0.1998969   0.0602574   0.1693098  -0.3579195  -0.2629972
  -0.1769550  -0.1292907  -0.2628307   0.0880932   0.2007009  -0.0575361
  -0.2600963   0.7264368  -1.0704364   0.8518984  -0.0638332   0.4183128
   0.1728010  -0.0545453  -0.1844006   0.5545728   0.1153773   0.0545668
   0.2446467  -0.0257350  -0.1402464  -0.0651865   0.2001924   0.1415727
   0.1584211  -0.2643852   0.3308908   0.5621025   0.5664763   0.3056347
  -0.0192625  -0.0785044   0.0245802   0.4333095   0.6071265  -0.6069442
  -0.4957324   0.6066491   0.4618174   0.0097400  -0.0263536   0.0874973
  -0.8815421   0.7735926   0.5145293  -0.0993465  -0.3422285  -0.3175629
   0.1977582  -0.0375246  -0.1105676  -0.4521336   0.7084840   0.3202834
  -0.0984344   0.2195363  -0.2736227   0.3606811  -0.0812949  -0.0073642
  -0.4158228  -0.2281493  -0.2041073   1.2526569  -1.1665110  -0.4156995
   0.1457460  -0.0874966   0.0992013   0.6874516   0.0989016   0.1101475
  -0.0608361   0.2423044  -0.0631979  -0.0542312  -0.0755748   0.1881146
  -0.1090198   2.0109956   0.6557754  -0.0240944   0.7190142   0.2975912
   0.0768117  -0.1770062   0.3643578   0.3553087  -0.9132795   0.3389483
   0.6438068  -0.6522235  -0.0915797  -0.0146506   0.1159337  -0.2203469
  -0.1271862   0.2362979  -0.0513104   0.1532466   0.2092820  -0.3561165
   0.0235508   0.1526317  -0.1233420  -0.4974187  -0.3763765   1.5840038
   1.3546045  -0.6276051   0.0502970  -0.1582682  -0.1960319  -0.2396324
   0.2345173  -0.8851178   0.0327683  -0.3202643   0.7332472   0.3636736
   0.1641407  -0.2096525  -0.1583011   0.6173518  -0.6687468   0.0483032
   0.1669589   0.5343074  -0.2945950  -0.0368074   0.0811664   0.1010124
   0.1464473   0.8801195   0.1018226   0.4120378  -0.5656354  -0.5910429
   0.0953081   0.0784220  -0.2515674  -0.1951691  -0.1897708  -0.4727941
  -0.0650781  -0.4040471  -0.3002485  -0.1396595  -0.2838868  -0.1068393
  -0.4463753  -1.1447736  -0.5431076   1.1253414  -0.0323663  -0.0912207
   0.0589155   0.4009931  -0.2200237   0.0624814  -0.3543478  -0.1770207
  -0.0431841  -0.0088678  -0.0146057  -0.2495949   0.1742070   0.2761645
  -0.1916027   0.3205360   0.1878618  -0.2702606   0.2140378   0.6699947
   0.0920422   0.1387542  -0.1439936  -0.2551669  -0.3202060  -0.0427406
   0.2949268   0.0305076  -0.2627688   0.2697096  -0.0580024  -0.0818592
  -0.2040905   0.8402417   0.6647866   0.2312153  -0.3246436  -0.3958721
  -0.2154134  -0.0140495  -0.1390877  -0.4135742  -0.3505498   0.6392472
  -0.1409473  -0.6900382   1.0139624  -0.2548878   0.0761653  -0.0995501
  -0.1466994  -0.0125891  -0.3457712  -0.3167043   0.3167134  -0.0887749
  -0.2980937  -0.0742106  -0.1066064  -0.4891804  -0.7853299  -0.5824142
   0.1985387   0.8416625   0.3851033   0.2231106  -0.1734161  -0.1767105
   0.3226339  -0.2277378  -0.1925332  -0.3181148   0.0880969  -0.1426821
   0.1532408  -0.2796825   0.1105086   0.0530638   0.0560301   0.6253220
  -0.0687586  -0.7211064   0.2652595  -0.1085407   0.4473127  -0.0037910
  -0.2261706   0.0100063   0.3312747  -0.8457606   0.4575249  -0.5431565
  -0.0125467   0.1149497   0.2442658  -0.4250442   0.4279642   0.9776453
  -1.0580855  -0.1981072  -0.3055527  -0.0431129   0.0229763  -0.0490008
  -0.3299374   0.4260755  -0.2352003  -0.0226390  -0.4204875   0.6649470
  -0.4563492   0.3138225  -0.0885572  -1.1015567   0.4041199  -0.6075149
   0.5847949  -0.1414984   0.1073774   0.0078865  -0.3245216  -0.1939298
   0.4541882   0.9422320  -0.5830145  -0.9634854  -1.0453575  -0.4312430
   0.3935115   0.1178926  -0.0101033   0.4393918   0.3846641   0.3056583
   0.6186941   0.6440629   0.6759681   0.1341807  -0.3285722   0.3934040
  -0.0270455   0.4064418  -0.3729569  -0.2264513  -1.2668259   0.1151541
  -0.0436328  -0.0312615   0.2769795   0.4636422  -0.8512682  -0.0162834
   0.2330600   0.7865136   0.1567445  -0.0525899   0.1019882   0.1682640
   0.0261091  -0.0265014  -0.1397805  -1.0337240   0.4033205  -0.5717215
   0.0391953  -0.1434435  -0.1206635   0.4357428   0.0510069   0.2680923
  -0.2986385   0.3596289  -0.2183110   0.0206437   0.1644980   0.0015960
   0.2863586   0.3556521   0.1995335  -0.0370612   0.0290345  -0.4053991
  -0.0162178   0.2791257   0.1429301  -0.2098377  -1.5230529  -0.7136010
  -0.4312710   0.2119546   0.0780972  -0.0230819   0.4769831  -0.0593085
   0.1146427   0.3021866   0.1291956   0.6534435  -0.5512837  -0.1349545
  -0.3006305  -0.1590349   0.0831154  -0.0903929  -0.8636750   0.9240793
  -0.3336274   0.0335695  -0.1187811  -0.0321238  -0.0431003  -0.0972952
   0.0951129  -0.4297014  -0.1088557   0.4228405  -0.2573777   0.0802624
   0.0698035   0.1699293   0.0353496  -0.4799786  -0.0136027  -0.2733230
  -0.1707294  -0.0642902  -0.1928714   0.2323275  -0.2254681   0.0014648
   0.5635914   0.1672705  -0.7798761  -0.3007471  -0.1692124   0.7325879
   0.0536618  -0.1179350   0.0187261  -0.9945109  -0.3278176   0.3002111
   0.9681146  -0.0556816  -0.8294519  -0.0010860  -0.0690254   0.0072287
  -0.4021221   0.1300537   0.4517661  -0.4126717   0.4138174   1.0961668
   0.0711883  -0.0792932  -0.0021600   0.3352650  -0.1951313  -0.1153996
   0.0792635  -0.1460842   0.2082485   0.0343312   0.0824171   0.0849365
  -2.2391053   0.8086117   0.1855499   0.0366172  -0.1803401  -0.0729091
  -0.1436628  -0.2369729   0.0336662   0.0388635  -0.6044792   0.2370740
   0.0618910  -0.6510530  -0.8957674   0.0091176   0.0249665  -0.1187405
  -0.1190856   0.1708435  -0.1304265   0.0221444   0.1542795  -0.0117662
  -0.0433376   0.1723319  -0.1234708  -0.0345105   0.0714664  -0.1748240
  -0.7518578   1.2025050   1.1293457   0.2691275   0.0366265  -0.1414754
  -0.4708979   0.1212030   0.1305906   0.3436961   0.3596121  -0.1356269
  -0.3093232   0.1570411   0.0722073  -0.1127191  -0.1970373   0.0629888
  -0.1411587   0.5533522   0.0492201   0.0538963   0.0391184  -0.0385921
   0.5196539   1.4420369  -0.3718446   0.0556976  -0.0707153  -0.0282408
  -0.1985653   0.1529787   0.0117925  -0.1872641   0.1849176  -0.0000854
  -0.2221408   0.0878629   0.0280182   0.2400065   0.2359880  -0.2872987
   1.0162370  -0.1017063  -0.3666333   0.3575948   0.2621698   0.5681464
   0.0511227   0.3409723   0.0929776   0.2234186   0.3274608  -0.1492254
   0.1552346  -0.4229251   1.2094921   0.2803376   0.0650917   0.0798818
   0.9378556  -0.9412295  -0.4537342   0.3934521  -0.6033018  -0.0079206
   0.1766659  -0.1684537   0.1805013  -0.1600517   0.4457794   0.0141675
   0.1932933   0.0596649  -0.0335898   0.0132560   0.1023889   0.0112731
   0.1398961  -0.2491652   0.1383475  -1.2875299   0.9582441  -0.1270127
  -0.0677307   0.1589135   0.1506960  -0.1123639   0.4413252   0.0536683
  -0.0416805   0.1857396   0.1675814  -0.0464360  -0.2352089  -0.0872157
  -0.0720310  -0.2354181  -0.2131870  -0.0523941  -0.2204304  -0.0262907
   0.0114194  -0.2035186   0.1167997  -0.4795572  -1.4540069  -0.1445887
   0.6144894  -0.9796197  -0.3068827   0.0182233  -0.1038254   0.0538865
   1.1510850  -0.0107479  -0.1401998  -0.9579096   0.2758265  -0.0743965
   0.3946705   0.0414885   0.0913640   0.2594126  -0.4345237  -0.8065813
   0.2762654   1.2597977  -0.3235824   0.2611338  -0.1873849   0.1736178
   0.9172305  -0.6313470  -0.3447725   0.8748177   0.2879408   0.4221233
   0.0164951  -0.3683457  -0.2570648  -0.5562287   0.3543933   0.2666963
   0.5032163   0.1030914  -0.8447536   0.1168507   0.0379070   0.1115225
  -1.3386951  -0.2866077   0.4685828   0.6652995  -1.2096051   0.4831368
   0.1920882  -0.1379010  -0.1136173  -0.2223167  -0.6861103  -0.1266146
   0.2650555   1.0827999   1.0029525   0.1375643  -0.0242053  -0.1442257
   0.4400875   0.2132830   0.1951021  -0.9274942  -0.6494178  -0.6608220
  -0.0577482  -0.0939128   0.0540220  -0.1265860  -0.0552051   0.1054901
   0.2235563  -0.2502735  -0.1539991  -0.0291781   0.2109916   0.3897949
   0.0164731   0.1063728   0.4025202  -0.3653006  -0.2729397   0.3938254
  -0.0307084   0.1400622  -0.4941674  -0.0644939  -0.0656337  -0.9594573
   0.3142585  -0.2268984  -0.0955663   0.4212114  -0.0592117  -0.0657687
   0.8137452  -0.0766508  -1.8523954   0.5242758  -0.1142051  -0.1819029
  -0.0464715  -0.0382312  -0.0289609   0.6392559   0.5994128  -0.7484466
   0.0844941   0.8273037  -0.6176024  -0.2281645   0.0193322  -0.3266927
   0.7251143  -0.3514787   0.4040139  -0.7042548   0.6321872  -1.3343835
   0.2141620  -0.1752170   0.0638101   0.0002004  -0.8419862   0.3380225
  -0.2592633  -0.1493500   0.3226465   0.0882566  -0.2925675   0.0577393
   0.9418842   0.3089706   0.2899184  -0.8715970  -0.2881126  -1.2899622
   0.0402597   0.1718924   0.2673765  -0.5911696   0.6230593  -1.0373862
  -0.6624459  -0.4366980   0.6502511  -0.0958084   0.0633722   0.3743151
  -0.1925762  -0.0088933   0.2795288  -0.5966057  -0.1375356   0.2194303
   0.0875482   0.0986377  -0.0622694   0.1353788  -0.2481289   0.5055600
   0.1176577   0.2176570  -0.4512212   0.0024775  -0.3613323   0.1468249
   0.0041621   0.8303180  -0.1167621  -0.3671524  -0.2403353   0.1811256
   0.4715204   0.1785040   0.3754381   0.9045262   0.3765306   0.3119791
   0.3660657  -0.0798838  -0.0519077   0.2671895  -0.1511194   0.2014996
  -0.2445861   0.5570091  -0.6419892  -0.5350445  -0.7429330   0.9369382
  -0.2186618  -0.1167731   0.0106598  -0.3156708  -0.6367522   0.7588110
  -0.4699575   0.7689034  -0.5079643   0.0252922   0.0614274  -0.2429241
   0.0060560   1.4724970  -0.5642629   0.4432109  -0.7171579  -0.3554131
   0.2119881  -0.0152835  -0.0083332   0.1028017   0.1536786   0.0317527
   1.0964085  -0.1296567  -0.1039754   0.2827669   0.2165674   0.1365571
   1.1696854   1.7797776   0.5636779  -0.9321087  -1.4293075  -0.0957601
  -0.0522797  -0.0346215   0.1658246  -0.2116562  -0.0449498   0.3441975
  -0.2496128  -0.1009684   0.1316901   0.0150161   0.1809680   0.1171058
  -0.3334965   0.0395980   0.0855384  -0.3525775   0.5525195   0.0658278
  -0.1605697  -0.0813584  -0.2991021  -1.0159277  -0.1044361   0.0200918
   0.8192903  -0.1553532   0.6177049  -0.0014181   0.1549964  -0.2927067
  -1.4757213   0.4739524   0.0196061   0.2636334   0.2647917  -0.4957946
  -0.0623982  -0.1536734   0.3135306  -1.1261827  -0.3693691   0.0120464
   0.0390162  -0.7875004  -0.0752638  -0.4135779  -0.1220463  -0.1957786
  -0.3734769  -0.2140241  -0.3233303  -0.6047105  -0.2743004   0.5411614
  -0.0017151  -0.2497875   0.0869016   0.1971351   0.2837321  -0.4454472
  -0.5485376   0.9072387   0.4573853  -0.2027411   0.0468089   0.0341386
   0.1937239   1.0406876  -1.2860481  -1.7939578   0.3806877   0.1141582
   0.2651522   0.1834495   0.3536341   0.2080098   0.2553438   0.3429070
   0.4321173  -0.3970740  -0.0069997   0.0236005  -0.0614044  -0.1685637
  -0.7548570   1.1061437   0.2758323  -0.4307155   0.6163036   0.0753080
  -0.3102720   0.1039746   0.1419572  -1.1721079  -0.2735820   0.8549488
  -0.3106418  -0.6719179   0.2262275   0.1330284  -0.0814970  -0.0290430
  -0.5455731  -0.3459357  -0.6637575   0.1800103  -0.1977900  -0.3419121
  -0.2400641   0.0901055   0.1755296  -0.2827528  -0.1969871   0.8642260
  -0.8375029  -0.7791432  -0.0605612  -0.0415614  -0.1434850  -0.0152364
  -0.0814967  -0.4059892   0.1104955   0.2321451  -0.0299537   0.2540124
   0.2458451  -0.1777676  -0.1653778   0.2411823   0.1045015   0.1191717
   0.4498823  -0.0220480   0.1362745  -0.1903816   0.1684081   0.0835256
  -0.0063000  -0.0029794  -0.0655575   0.3147680  -0.1127197  -0.3194505
  -0.0860868  -0.3121036  -0.1968133  -0.8717129   0.0246435   0.0885658
  -0.2329735  -1.2017719  -0.2666422  -0.1486820  -0.0402615   0.2803482
  -0.0759391  -0.2151006   0.2170011  -0.1275378   0.0765481   0.0380476
  -0.2824805  -0.0921887  -0.3315928  -0.1686155  -0.2419590  -0.5561565
  -0.3356366  -0.1040135  -0.3809774  -0.0185945   0.0732058   0.2991940
   0.3037458  -0.3716371   1.3085736  -1.1370488  -0.0861161   0.0067158
  -0.4275716  -0.0531173   0.4148450   0.1356101   0.0453219   0.5832550
  -0.0639648   0.2287533   0.7807675   0.2531747  -0.1656483   0.0407384
   0.0306159   0.0933144   0.0143960   0.3668368   0.0255886   0.3085672
   0.1777404  -0.2179771   0.2449198   0.8029459   0.8845783  -0.2051848
   1.1037185  -1.0001705   0.7551227  -0.0022682   0.0303199  -0.1892106
   0.2521779  -0.0289119  -0.2124691   0.0802474   0.6980881   0.0355700
   0.1182404   0.3776965   0.3215615   0.0714905   0.3283098   0.3724306
  -0.2050959  -0.2382964   0.5588515  -0.0574684  -0.1246820   0.0902674
   0.9213626  -0.3956334  -1.2580878   0.0145547  -0.7606320  -0.3694328
  -0.1542218  -0.0397190   0.2732192  -1.2384724   0.6691533  -0.7445426
   0.5115483  -0.3928137   0.6260942  -0.2305041  -0.1501874  -0.1095480
   0.0914330   0.1090669   0.8779543   0.0961214  -0.3157729  -0.1676529
  -0.1223673  -0.0457302   0.0035795  -0.0245263  -0.1616067   0.0257446
   0.7388169   0.5061359  -0.3344809  -0.0624958   0.0122179  -0.1837997
  -0.3317941   0.0264511  -0.3259113   0.1425577   0.3454825  -0.3818735
   0.0630581   0.0499293   0.0589293   0.0693607  -0.6008851  -0.4954509
   0.4903136  -0.8981842   1.0531080   0.0049462   0.1605979  -0.2472869
  -0.1812108   0.2877679   0.2311408   0.6227168   0.2893772  -0.1105769
  -0.0689704   0.4643384  -0.2147945  -0.7713817   0.0290264  -0.4157989
  -1.0099596  -0.4922065  -0.0459558   0.2177183   0.3387773  -0.1849866
   0.8359704  -0.8013622  -0.7621924  -0.9400909  -0.0970758   0.0922996
   0.1231242  -0.2425351  -0.1116836  -0.2454208  -0.7058414  -0.2968387
  -0.5769247   0.6898234  -0.3615534   0.0876351   0.0024417   0.1387129
   0.0480417   0.5504122  -0.6041485  -0.1588069  -0.2325551   0.7299979
  -0.0067951  -0.0842455   0.0514528   1.2425383  -1.0436050  -0.7698183
  -0.0949734   0.4107747  -0.5114819   0.0377244  -0.0417807   0.0162449
   1.2417826   0.0000662   0.0855883   0.1797236  -0.7822769   0.4782860
  -0.0412023  -0.1333821   0.0245442  -0.9430478  -0.5593301  -0.4751363
   0.6775175  -0.5219210  -0.5971123   0.3363617  -0.3259745   0.1607499
  -0.1855962  -0.0473319  -0.2758920  -0.1139114  -0.1329675  -0.0411102
  -0.1778848  -0.1349537   0.3939200  -0.5000508   0.0997998   0.1597175
  -0.8804752   0.9350165   1.5815085   0.1081597   0.2229214   0.1359417
   0.0477746   0.7805268   0.6752028   0.0096100   0.3198878   0.1877704
   0.2204938  -0.0952610   0.4461748   0.4132520   0.1549481   0.7334463
   0.1284915  -0.7239952   1.5931166   0.1749113  -0.0583764  -0.1865229
   0.1009082  -0.6616014  -0.3859258  -0.5561000  -0.0614002  -0.7521496
  -0.3881214  -0.1426461  -0.1654187  -0.4465215  -0.3320877   0.2816967
   0.3572838   0.6979193  -0.7417480  -0.0558061   0.0650053   0.1762774
   0.2312747   0.3151988   0.9446523  -0.4458567  -0.6107135  -0.3276204
   0.0782168   0.1211821  -0.3132000   0.1267383  -0.1520489  -0.0813230
   0.2587581  -0.4895834   0.9807490   0.1955937  -0.0588852  -0.2017126
   0.2980342   0.5813284   0.2551873   0.8699647  -0.5477423  -0.0100303
  -0.1796781   0.1519833   0.2844031  -0.0045409  -0.1718673  -0.1842109
   0.4960352  -0.2519512   1.1574709  -0.1627763   0.0511030   0.0033441
  -0.6888372  -0.1746323  -0.0404949  -0.1635747   0.6873453   0.3634883
  -0.0282251   0.0665821   0.0605430   0.1015208   0.2335166   0.2119122
   0.3368369   0.2106815   0.1010969   0.1412683   0.0496841  -0.0418127
   0.0418727  -0.0309854  -0.9720424  -0.0652630   0.3506551   0.3321179
   0.1635496   0.0643356   0.0095111  -0.2666985   0.2220715   0.2455862
  -0.5078466  -1.7360992  -0.5505288   0.1184285  -0.0772270  -0.0093220
   0.6780219  -0.2523691   0.6267872  -0.6129233   0.1360346   0.3992574
   0.2564572  -0.1456611  -0.2922077   0.6417798   0.2422251   0.3901881
   0.4537590  -0.6659430  -0.0608995   0.0892412  -0.1548598   0.3926944
  -0.5867175   0.1257624   0.3850308  -0.1212562   0.0120803  -0.1747177
  -0.0497223  -0.3047505  -0.0190359   0.1149416  -0.6407540   0.2420877
  -0.8083048  -0.3335111  -0.3016234  -0.0852453   0.0848177  -0.2227253
  -1.7663974   0.2493998   0.7280427  -0.5081248   0.1248566  -0.0080684
  -0.1531069  -0.0875805  -0.0035171  -0.3915155   0.4821051   0.7213617
   0.0987462  -0.1634184  -0.6919310  -0.2039608  -0.1571856  -0.0040256
  -0.6842383   0.5729029   0.4504963   0.3046737  -0.2773763   0.0359480
   0.1640544  -0.0871459  -0.6149632   0.1867901  -0.7212585  -0.0199646
   0.2074238  -1.2553544   0.2145858   0.0261564  -0.2475554   0.0613616
   0.4146965  -0.0568418  -0.0337764  -0.1939089   0.6239094   0.9903219
   0.1350879   0.0035530  -0.2567696  -0.3920077   0.6764440  -0.0805137
   0.1231941  -0.0179073  -1.8456597  -0.4505027   0.0556100   0.1426740
   0.0723101   0.3155377  -0.0579609  -0.1324935  -1.3121339  -0.0258612
  -0.0192394  -0.0078772   0.0026303   0.0168101  -0.1802249  -0.0291892
   0.5375684   0.0982858  -0.1105238   0.0966665   0.0223789  -0.0195276
  -0.5001323   0.3027758   0.4700831  -0.4854122   0.8842689   0.3259114
   0.0175989  -0.2134883   0.2102678  -0.0756443  -0.3491783   0.1680121
   0.8808021   0.2352388  -0.8252497   0.1097974  -0.0849417  -0.0727920
  -0.1598763  -0.1432769  -0.1598408   0.1364031  -0.0289796   0.1293217
  -0.0453346   0.0273966   0.3683245  -0.4285678  -0.5899595   0.6345234
  -0.3312518   0.6466696   0.7584669  -0.0705801  -0.0505682  -0.4051390
   0.1066873   0.5369109  -0.3552662   0.4524322  -0.4288229   0.0401437
  -0.2177758  -0.0341700   0.1234848  -0.9877245  -0.1950346  -0.7079986
  -0.4598162   0.1985755   0.2612185  -0.2792905   0.1591905  -0.2192818
   0.9382892  -0.2630457   0.2522654  -0.3528367   0.2906746  -1.7131049
   0.0829519  -0.0245334   0.1314566  -0.4924059   0.1141386   0.7859305
  -0.2558089   0.5240330   0.9696800  -0.0532291  -0.2228271   0.2488741
   0.1256464  -0.2134715  -0.6319152  -0.1280917  -0.3046962   0.2816529
   0.2173285   0.0376897   0.0216372   0.2440644   0.4222221  -0.5373904
   0.4410651  -0.5256672  -0.2906868  -0.0912552  -0.1665155   0.0478250
  -0.2984131   0.4812953  -0.1744714   0.1815123  -1.4435085   0.0527643
  -0.1428278   0.1546255  -0.0722361   0.4049882   0.1769139  -0.3169776
  -0.2756253   0.1113322  -0.0505142   0.1714506   0.3843049  -0.1804279
  -0.4935513   0.8342190   0.2011627   0.3229209   0.3343551  -0.3207795
   0.2265737  -0.0129577  -0.2775182   1.0852781   0.6142488  -1.3536601
  -0.1598105  -0.4074181   0.4386317   0.3137518   0.0301523  -0.1865325
   1.1510558   0.4354949   0.4897437  -1.0943004  -0.9986562   0.7828004
  -0.3982247   0.0952129  -0.0572849   0.3133037  -0.5174047  -0.6110757
  -0.0148771  -1.3888564   0.4162832   0.0960230   0.1780669   0.0660303
   0.1013059   0.4014369  -0.6204213  -0.1026952  -0.1542486  -0.0939474
  -0.1750132   0.0173478   0.0199303  -0.8670856   0.8010555   0.0919142
   0.8387215  -1.1989223   0.0462723   0.0948870   0.0250287  -0.0837989
   0.7297340  -0.2000250  -0.0637770  -0.6199643  -0.1251215   0.5495579
  -0.0895299  -0.1726364   0.1649150  -0.5140653   0.1891604   0.5296805
   0.4696617  -0.5758536  -0.5022366   0.5077326  -0.0824991   0.1008264
   0.3325189   0.3011665   0.4304017   0.2342355  -0.0721596  -0.2993835
   0.1105952   0.0436294   0.1876170   0.0815252   0.1561556   0.3164974
   0.2693174   0.0800199   0.1335096  -0.2319649   0.0424031  -0.1357443
  -0.0686449  -0.1761682  -0.0310209  -0.0731562   0.4340868  -0.1249810
   0.0512745   0.0393056   0.3436449  -0.6827860   0.1662922   0.5472607
   0.1479534  -0.5174203  -0.2227650   0.3976376  -0.0334806   0.0468601
   0.1352188   0.2047738   0.0673244   1.4555755   0.1449243   1.2198025
  -0.0069979  -0.1058369   0.2481435   0.2477022   0.6754543   0.6231605
  -0.0122161   0.2699802  -0.1749711   0.1143083  -0.1034376   0.1632899
  -0.1868917  -0.1722504   0.9050903  -0.2326688  -0.1350210   0.2254968
  -0.1329616  -0.0054261  -0.1673534  -0.0267431  -0.2800972  -0.4490787
  -0.8694120   0.1887374  -0.5884683   0.2149124   0.0221798  -0.0557856
  -0.3980404  -0.5568554  -0.6752104   0.6166117   0.7675499  -0.6828195
  -0.0234642   0.2076386   0.0551776  -0.3535812  -0.6392065   0.5044246
  -0.2198050  -0.3369583   0.3392884  -0.0502849  -0.0338469  -0.2415932
   0.2859235   0.1086211  -0.5357811  -1.0379455   0.7824345  -0.1601905
  -0.1525228  -0.1834475  -0.1620884  -0.0191906  -0.0553885  -0.1318316
  -0.0245048  -0.0152136  -0.1300515  -0.0061627  -0.2373371  -0.2245639
  -0.1906975   0.1665666   0.8374949   0.0866329  -0.5662538  -0.8942892
   0.1036354   0.0931210  -0.0607710  -0.2390691   1.4248001  -1.3167543
   1.0390305   0.9590427   1.2470827   0.0742927  -0.4099493  -0.2932949
   0.4378709   0.2939777  -0.0987336  -0.6254667   0.4888162  -0.8823505
  -0.1502810   0.1925637  -0.0872492  -0.2948803  -0.7220928   0.1830492
  -0.5977080   0.3194512   0.5424563  -0.1032177  -0.2149705   0.0917506
  -0.3035898   0.0735545   0.1982192  -0.2300024  -0.3137236  -0.2211531
  -0.3583161   0.0659112   0.1316494  -1.0971481   0.7681683  -0.5544747
  -0.6985359   0.1871874  -0.2076010  -0.0825876  -0.4366355  -0.3814901
  -1.1410761   0.1377158   1.5284852  -0.0746070  -0.2397902   0.0570468
  -0.2940116   0.2239990  -0.0170825  -0.0539944  -0.0683820  -0.1321840
  -0.2326437  -0.1600107  -0.1021240   0.1310122   0.0052416  -0.0068424
   1.2917012  -0.2246549  -0.1469717  -0.5184844  -0.0415122   0.0027235
   0.0122908  -0.1050548   0.2775397   0.7400257  -0.1585078   0.1770086
   0.4459989   0.1049749   0.2432791  -0.2311467   0.2922078   0.1067164
  -0.3096104   0.0498069  -0.8927198   0.4541498  -0.3935759   0.3679370
   0.0093966  -0.0216373  -0.1318612  -0.6366215   1.0617999   0.7409579
   0.1145029   0.1167029  -0.4925038   0.1089061  -0.1483753  -0.3794754
   0.4684301  -0.2037960   0.0180838  -0.7449722   0.2126118  -1.2681992
   0.4155845  -0.0077785   0.0945944   0.0066696   0.0101863  -0.0640402
   0.6283107   0.0383593   0.1411266   0.0257054   0.2893615   0.0350240
   0.3476229  -0.3364451   0.0981404  -0.2926613   0.5873535   0.3912542
  -0.0094202  -0.1037585   0.2948053  -1.9897307   0.4703239   0.1333598
   1.3781629   0.5751676  -0.7787204   0.0352270  -0.0198754  -0.3110781
  -0.5956985  -0.4816342  -0.0650564  -0.6751455   0.7353254   0.0854277
   0.1796085  -0.0030968  -0.0155022   0.3676131   0.7577038  -0.6971459
  -0.0461654  -0.2096800  -0.4553753   0.1493158   0.1651625  -0.1895279
  -0.7772341  -0.5661264   0.3747676  -0.6792478  -0.1720080   0.1176153
   0.0108232   0.0870702  -0.1274254   0.7945728   0.0987442   0.9151995
   0.1181318   0.0872014   0.2507442  -0.0975734  -0.0010478   0.4677617
  -0.3620313   0.7164566   1.0087464  -0.6974593  -0.1206251  -0.1325821
  -0.4410005   0.1717571   0.0658181   0.1785667  -0.0023655   0.5781922
   0.1371131  -0.0108626   0.5523363  -0.3131693   0.1499852  -0.3243749
  -0.0724676  -0.7787023   0.1116994   0.6963054  -1.1593120   0.3286135
  -0.1700409  -0.0368202  -0.0173729   0.8475643   0.0869637  -0.9379463
  -0.4917499  -0.2491729   0.2313712  -0.2616432  -0.1374221   0.0480743
   0.4559069   0.4474137   0.3177130   0.8625051   0.9448737   0.5326941
  -0.3087244   0.2474166   0.0023511  -0.4452058   0.9065839   0.0008326
  -0.4241626   0.1022918  -1.4498225   0.0548349   0.2944220   0.0843071
  -0.3013226   0.5108215  -0.3461283  -0.1162979   0.3487114  -0.1209315
  -0.1737816   0.1014421  -0.0691179   0.1970852   0.4491541  -0.3497822
  -1.0668460   0.1803365  -0.0911555  -0.1655158  -0.2450433  -0.0404510
   0.4053408  -0.2645916  -0.2507203   0.1199432  -0.3819965   1.0823075
  -0.2081528  -0.1234862  -0.2982845  -0.0807971  -0.2021346  -1.6658860
   0.4067495   0.3309890   0.0296996   0.0051268  -0.0504237   0.1999142
   0.0815718   0.4470340  -0.4998374   0.1158792   0.1156011   0.3317995
  -0.0378503   0.2967683  -0.3179336  -0.1746551  -0.1674818  -0.0530626
   0.1890506   0.5721266  -0.5380480  -0.2027382   0.1606166   0.1572844
   0.2469471   0.3550798   0.1415324   0.1169013   0.4632035   0.1035375
  -0.1124789   0.2347511   0.1474582  -0.1418232   0.6152824   0.7909220
   0.1239499  -0.7174877  -0.1912930   0.0405416   0.3143865   0.1626086
   0.2586578  -0.8364256  -0.5552453   0.6059158  -0.1047730   0.5046526
   0.0082466  -0.0362829   0.0073254   0.4739524  -0.5709446   0.1207941
  -0.1980411   0.9713607  -0.4373749   0.2707009  -0.1781569   0.0875631
   0.5049533   0.1880763   0.4054187  -0.0608391  -0.7507522   0.1233245
  -0.1341121  -0.1368351  -0.2240971   0.0063884   0.3736740   0.0645182
  -0.1480183  -0.1930038  -0.0500638  -0.2429752   0.2900792   0.2433365
  -0.0666835   0.3451883   0.1070541  -0.5473929  -0.8428527   0.8454158
  -0.1001886  -0.1480410  -0.2232144  -0.9512285  -0.7099551   0.3317009
   0.3116662  -0.7825863  -0.9302000  -0.1090779  -0.0226707  -0.2751559
  -0.3350782  -0.1774200  -0.2117035   0.2234384   0.1728975  -0.5093229
  -0.0313437  -0.2333940  -0.0960653  -0.3860705  -0.6020634   0.4090862
  -0.2705304   0.1008971   0.1010629  -0.1474256  -0.0013813  -0.2872897
  -0.0784164   0.2996277   0.0225266  -0.3553208  -0.4972711  -0.5759502
  -0.2302776  -0.1104054  -0.0392181  -0.1490762   0.3716369  -0.5636221
   0.0333138  -0.3310142   0.4487265  -0.2404637  -0.0507551  -0.0314699
  -0.0426135   0.7232516   0.0623667  -0.1302365  -0.3739406  -0.5162296
  -0.2875329  -0.1234416   0.1914252  -0.3774615  -0.0435597   0.0179081
  -0.0744127  -0.6248806   0.3165242   0.0873313  -0.2561479   0.1879976
   0.3688917   0.1458382   0.2171657   0.0848903  -0.4392742   0.5575951
   0.1632619  -0.0821373   0.3547322  -0.3458719   0.2061571   0.1589498
   0.0328700   0.0013129   0.9065995  -0.1853045  -0.2645098  -0.2174624
   0.5200135   0.2799410   1.0355587  -0.9921868  -0.1569931   0.9360836
  -0.2567927  -0.0114817   0.1602897   0.3511480   1.3203423  -0.8329086
  -0.5464552  -0.2799571   0.4592445  -0.0074501  -0.0552760   0.1718308
   0.1640676  -0.6071526   0.0155392  -0.4283137   0.0299613  -0.3188119
  -0.1733354   0.3930483   0.0444604  -1.0325446   0.2315503  -0.2661965
   2.0929757  -0.4805226   1.2126960   0.0161933   0.2765270  -0.1417726
   0.2702556   0.0025709   0.0333451   0.3846478   1.7561018  -0.1386695
  -0.0283784   0.0555286   0.2967023  -0.0464894   0.8893872   0.4413702
   0.0408657  -0.5370107   0.2320911   0.0261374  -0.2296210  -0.1872039
  -0.1246398   0.9400633  -1.1732892   0.2306599  -0.0181166  -0.2921494
   0.1978941   0.1280932   0.0973555   0.6676930   0.5242259  -0.8636127
   1.0980381  -0.5518998   0.9905291   0.2374052  -0.3273335   0.1901355
   0.2697619  -0.9032235   0.4257387   0.2817036   0.4507678  -0.2205718
  -0.0538842  -0.1966468   0.0100597  -0.0740194   0.1251734  -0.7447060
  -0.3885730  -0.2784983   0.5475597   0.0754899   0.1866233  -0.4215158
  -0.0078122  -0.5224617   0.4811155  -0.1253542   0.1922807  -0.2669382
  -0.0812949   0.2161310  -0.1462738  -0.0981325  -0.2768490  -0.0656031
  -0.2031414   0.1309851  -0.3066404  -0.0561811  -0.2733538   0.1009120
  -0.6381695  -0.3240296   0.5550751  -0.1613591   0.5298947  -0.1502199
   0.2588954   0.0318686  -0.2450984  -0.6429874  -0.2468648  -0.4123603
  -0.8219553  -0.0976113  -0.0805654   0.1977373   0.1370221   0.1260793
  -0.0247110   0.1527879   0.0860673   0.2025649   0.1401752   0.0919794
   0.1297253   0.4449845  -0.0942602  -0.3470013   1.0714342  -0.4505117
   0.4910565  -1.3254372  -0.6409721   0.0613780  -0.0659200   0.0426782
   0.6740528   0.1577043   0.2399933  -0.0278255   0.0012142  -0.4373347
   0.0374054  -0.3426156   0.2616465  -0.0338792   0.6294835   0.4184494
   0.3532208  -0.0326653  -0.2185932   0.2903479   0.1972099  -0.0498820
  -0.7816229   0.9576165   0.3388489   0.8490276  -0.1484965  -0.2994033
   0.0103141  -0.1996308  -0.1611337  -0.2714143   0.6011137  -1.4595386
  -0.2314010   0.5669463   0.6217148   0.1779483   0.3027086  -0.2595554
  -0.2158181   0.1136694  -0.1614517   0.1753319   0.1801203  -0.7485058
   0.0989303   0.4343271  -0.0934485   0.3670968   0.5136676  -0.4836581
   0.6382692  -0.0246616  -1.4896852   0.1930179  -0.2335376   0.0678751
   0.0446426  -0.4346340  -0.7570051  -0.1246022   0.5771002  -0.1601700
  -0.0921157   0.0251194   0.1064147  -0.5332571  -0.0199880   0.6878422
  -0.2202612  -0.0923203   0.0311489  -0.0809215  -0.0263092   0.0555541
  -1.5554351   0.0693089   0.3043618  -0.3677070  -0.6719658   0.0558535
   0.0415106   0.0502740  -0.0658077  -0.1855354   1.0512858   0.4902276
   0.0383367   0.3367674   0.0557178  -0.0752846  -0.0337271   0.1671913
  -0.5711426  -0.6861519  -0.4771979  -0.4558838   0.6662240  -0.3523125
  -0.0987566   0.0162034  -0.1470165  -1.2122109   0.8115512   0.0101303
  -0.4313499   0.4267927   0.2974388   0.0752764  -0.5458004  -0.2489937
   0.3825411  -0.3730205   0.2201887  -0.0683450  -0.8082699  -0.3952537
   0.1479739   0.0798122  -0.3071348  -0.6441851  -0.3725562   0.1918278
   0.5724674   0.8480906   0.2646487   0.2079782  -0.1726799  -0.1831390
  -1.0128690   0.8899059   0.5530072   0.0552689   0.4585446   1.1997075
  -0.0034185   0.2117890   0.0550371   0.1057560   0.3865006  -0.0824187
  -0.2540649   0.1969958  -0.0269351  -0.1178859   0.1003816  -0.0405747
  -1.2761101   0.3188318   0.0489527  -1.4961925  -0.2573824  -1.1784049
  -0.0711644   0.2780302  -0.1238780   0.5277804  -0.7891143   0.1606923
  -1.0357720   0.2738404   0.6815615   0.1398497   0.0108744  -0.0185768
   0.1741637  -0.0751292  -0.4302631   0.0524039   0.0089987   0.0958684
  -0.1401557  -0.1141929   0.1654562  -1.2840934   0.8277706   0.3510435
  -1.0096354   0.1796324  -0.1036266  -0.0457603   0.3047458   0.1329967
   0.2819801   0.4229322   0.6960127  -0.3271381   0.2096837  -0.3777605
  -0.5648245  -0.2775985   0.0509414  -1.0066245   0.1326597   0.0397032
   0.4991712  -0.0083422  -0.1722217  -0.4274505  -0.0066068  -0.1888318
  -0.8895139  -0.4515217   0.2037970   1.0436744   0.6698070   0.6138071
  -0.3457592  -0.0472336  -0.1010064  -0.8541146   0.2957011  -0.0745599
   0.0870070  -0.2787973  -0.0298631   0.0773553   0.0805900   0.0978561
   0.5958362  -0.3807614  -0.0353574   0.6228653   0.0702043   0.6827206
  -0.1148737   0.0012713   0.2292598  -1.3351433  -0.7678157   1.3314189
  -0.0858583   0.5060651  -0.1653357   0.1750260  -0.0084243   0.0757336
   0.6490680  -0.1103281  -1.7277024   1.4887423  -0.9622026  -1.6010722
   0.1423133  -0.0971283  -0.3533947  -0.6563026   0.3053243   0.1265582
   1.0675966  -0.1832223  -0.4860483  -0.1499692   0.0668378  -0.0906706
   0.1512630  -0.5917731   0.4848507  -0.6357335   0.3048084  -0.2558054
  -0.0410319  -0.2017838  -0.0112023  -0.0383732  -0.2441452  -0.3508446
  -0.5056756   0.0030870   0.0386144   0.1670367  -0.1024313  -0.0179915
  -0.9199215   0.1139285  -1.1631697  -0.0091403  -0.8183741   0.1502773
  -0.1353689  -0.1956599   0.0490885  -0.1059322  -0.4262028   0.4247939
  -0.4006366   0.1776827  -0.5782766   0.0896599   0.1538963  -0.0009154
  -0.1810573  -0.6852842   0.4029031   0.9030213   0.6350328   0.0604254
  -0.1568475  -0.2830941  -0.3810687  -0.2283151   0.0083921  -0.3756593
   0.2089717  -1.2518295  -0.3928245  -0.0301409  -0.1400298   0.0354888
  -0.5670023  -0.1590532  -0.1377039  -0.2843582  -0.1050757   0.0044605
  -0.0335153   0.5121838  -0.1644332  -0.3446341   0.5395049   0.1452172
   0.3339840   0.5148318  -0.5917744   0.1455466  -0.1438692  -0.0803564
  -0.5097602  -0.1768810  -0.0364104  -0.0627560   0.6034401   0.3158938
   0.4352044   0.2521194   0.4206411   0.6547849   0.5013594   1.1035315
  -1.7821253  -0.1909553  -0.7935748  -0.2384027   0.2317399   0.1919685
  -0.0512870  -0.9558609   0.4815446   0.6678187   0.5882946  -0.4230876
  -0.3730166  -0.0069113  -0.2622169   0.1134870   1.7118357   0.0650439
   0.0334315  -0.4232540  -0.9167749  -0.0968015   0.0610333   0.2851102
   0.5170914   0.1059955  -0.0791068  -0.0919458  -0.2013722   0.3954260
   0.1436737  -0.0270197  -0.0531429   0.3859377  -0.1445542   0.6887382
   0.3187129   0.4767792  -0.7497253   0.1981663   0.1809015   0.0040238
  -0.0441319  -0.8950222  -0.6627172   0.2292559  -0.0606994   1.0751862
  -0.0734913   0.0059801   0.0894884  -0.4473746  -0.5590254   0.2088190
  -0.7059477   0.1081332   0.2081189   0.2713841   0.0066065  -0.1345536
   0.2642745   0.2033341  -0.1353929  -0.1299916  -0.0961016   0.1209381
   0.0679296  -0.0781631  -0.2258407   0.3174888  -0.0055661   0.0094150
  -0.1059982   0.1744428  -0.3418009  -0.4921694  -0.4165615  -0.2266514
  -0.5540688   0.4949200  -0.5112316  -0.8617211   0.1325917  -1.2697943
   0.0912599  -0.3145417  -0.0976492   0.0545863  -0.6349884  -0.1545459
  -0.0873396  -0.1371307  -0.3304650  -0.1231917  -0.2423268   0.3287356
   0.9505852  -0.0869796   0.4690664  -0.4257167   0.7021753   0.7769884
   0.1092020   0.1587231   0.0413219   0.5758560  -0.3119241  -0.0918454
   0.1556013   0.7644194   0.1104312  -0.2109020  -0.1478651   0.1361839
  -0.2018973   0.4400027   1.4675749  -0.1377478  -0.8546976   0.2862255
  -0.1193129   0.0692167  -0.1999776  -0.4631586  -0.0076360  -0.6984682
  -0.4832913   0.1794870  -0.2647095  -0.0361662   0.0770314  -0.1734543
  -0.4497364  -0.2987169  -0.0088420  -0.4107122   0.5570554  -0.0980535
  -0.0251745   0.1922130  -0.4054054   0.6327713  -0.0087889  -0.6960343
  -0.2232594   0.1373708   0.2617867  -0.0520146  -0.2838524   0.2669195
  -0.1074690  -0.3066426  -0.1243054  -0.5922932  -0.1594799   0.3564306
  -0.0706233  -0.0137782  -0.1090388  -0.2114846  -0.5768145   0.2432668
  -0.4795205   0.0990108  -0.6363369  -0.1038153  -0.3811751  -0.3990823
   0.9687582  -0.0357147   0.1706302   0.9409074   0.6731073  -0.6385252
   0.3653691   0.0494283  -0.1072581   0.2731678  -0.1598360   0.1610258
  -0.2921036  -0.0541249   0.1781012  -0.1997131   0.1860322   0.0246113
  -0.8125786   0.6687345  -0.4450335   0.3206095   0.6925538  -0.0744615
   0.0429964  -0.0475585   0.0596557  -0.4216146   0.8902049  -0.0961625
   1.5445098   0.5597504  -0.7158115   0.1206223   0.1675179  -0.1074440
   1.7129491   0.6002662  -0.1816665  -1.2639857   0.1498748  -0.1057546
  -0.1130437  -0.0400219  -0.1550258  -0.9486703   0.1718058   0.2067644
  -1.0049891  -0.1040817   0.5664086   0.1178752  -0.2127593   0.0755679
  -0.3118577  -0.5460276  -0.3560882   0.2496674  -0.0405332   0.0174915
   0.1059129  -0.1282137  -0.1979214   0.1001824  -0.4875953   0.1062299
   0.6178711   0.4539053  -0.2731153  -0.0283116   0.0369774  -0.0083807
   0.7009081   0.0128161  -0.4377206  -1.0908201  -0.2580260   1.1656257
  -0.1300098   0.0294796   0.0994521  -0.0825840   0.1543995   0.0455382
  -0.0619347   0.3619215  -0.1005047  -0.1230487   0.2038789   0.1374674
   0.5217517   0.4414806   0.2475636   0.8495567   0.0163009  -0.5582953
   0.2674653  -0.0983764  -0.2014566   0.6138452  -0.0223320  -0.1764140
   0.1055088  -0.1775340  -0.1455056  -0.2403986  -0.1126058   0.0220980
  -0.1586023   0.0589517  -0.1003418  -0.6720590  -0.4469755   0.4927005
   0.0873591  -0.2227933   0.2472879   0.5155295  -0.5574377   0.2379610
  -0.0317364   0.5340566  -0.5229560   0.0119771  -0.1237125   0.2228407
   0.2631191   0.4053361  -0.9511912  -0.7441257   0.4241564   0.2418427
   0.1926846  -0.2758536  -0.1004519  -0.8818494  -0.2593729   0.6284505
  -0.4066233  -0.2676927   0.4209950   0.3253897  -0.0056281   0.0520060
  -0.2746253   0.3203217  -0.9902118   0.4320646   0.0594149  -0.0733048
   0.0033582  -0.1873260   0.2931806  -0.0344058  -0.6184093   0.4235733
  -0.2549667  -0.0117408   0.3413882  -0.0978005  -0.1494192  -0.0884328
   0.7308399  -0.3568137  -0.4319640  -0.6625057  -0.3289729  -0.7542971
  -0.0747034   0.0671860   0.0040366   0.3340543   0.1321124   0.4516687
  -0.3745689  -0.7532409  -0.1085841   0.2309789   0.1358936   0.0415837
   0.0112319  -0.0844002   0.1608959   0.2135858   0.0802637   0.1506974
  -0.0442756  -0.1936174  -0.2430437   0.3759474   0.2753678  -0.0606745
   0.2267469  -0.2889651  -0.0943244  -0.0568318  -0.0689221  -0.2489652
  -0.3658152  -0.7856708   0.0483217   0.4231524  -0.0017962  -0.4703428
  -0.4247342  -0.1540829   0.0240007  -0.6062023   0.2717406   0.1035954
  -0.0389224   0.1284925  -0.3285954   0.0592137   0.0430750   0.0700168
   1.0049601  -0.0191971   0.2441183  -0.6914696   0.0792520   0.1784459
   0.1801098   0.0783596   0.1565991   1.0253444  -0.0843363   0.7756221
  -0.5834178   0.3479850   0.8015699   0.0472814  -0.3349431  -0.2031167
   0.0009957   0.1281734  -0.1456427  -0.0224810   1.4442626  -0.5190435
   0.0211441  -0.3434450  -0.2442715   0.3373548   0.3684371   0.8522533
  -0.3192662  -1.6347138  -1.5209515  -0.1590010  -0.1109242  -0.3333625
  -0.1911179  -0.1387757   0.2456814  -0.3357502  -0.5112534  -0.5004059
   0.0375932  -0.2442526  -0.2113524  -0.3318967  -0.3184247  -0.0485973
   0.1285025  -0.3774349  -0.3384619  -0.3240592  -0.1412146   0.0875795
  -0.1586150  -0.1058076  -0.0141230  -0.6281002   0.4654472   0.7261738
  -0.4739064  -0.2844876   0.0995852   0.1755103  -0.2190069   0.7611977
  -0.0645858   0.0039875  -0.6341543  -0.0638064   0.0492566  -0.1947460
   0.0474978  -0.4706848   0.5961145  -0.2754028  -0.0395463  -0.5642474
   0.1682962   0.1697987   0.1781704   0.1994252  -0.2131473  -0.3089764
  -0.5097060   0.2923403  -0.1578825  -0.0612579   0.1211795  -0.1165093
   0.3064751   0.7389547  -0.4899505  -0.2065507   0.1050607  -0.3755087
  -0.0569500  -0.3018072  -0.0729263   0.2963853  -0.7057776   1.0956384
  -0.7311268   1.0173431  -0.8231002  -0.1739653   0.0415956  -0.2956752
  -0.0783891   0.0077412   0.1190267   0.0113625   0.1492194  -0.1105440
   0.0666156   0.1650946  -0.0824711   0.5655036   0.2375269  -0.3738970
   0.0489972   0.1708719  -0.3417178  -0.1030844  -0.3209410   0.2633636
   0.0469340  -0.2797691   0.2747441  -0.0194270  -0.5996623   0.3176708
  -0.1288810  -0.0785311  -0.2059322  -0.5884941  -0.4172345   0.5038957
  -0.0903971   1.3335573   0.1391733  -0.0308930  -0.3264281   0.2045084
   0.0675185  -0.3221701  -0.5721429   0.0227478   0.5088743   0.5112294
  -0.1223170  -0.0481183   0.0217767  -1.0228329  -0.8815606  -0.7478846
  -0.7331038   0.1845622   1.2120314  -0.0641736   0.3529750   0.2139568
   0.4389210   0.1832530  -0.7680794   0.4616533  -0.3149504  -0.5116345
   0.4133577   0.2010425  -0.2282164   0.2630358  -0.1682102   0.8853098
  -0.0322072  -1.0757066  -0.2974469  -0.0054354  -0.0784173   0.0458124
   0.3885008   0.7081003  -1.0400077  -0.9706795  -0.9248661  -0.6731078
   0.2569205   0.0734906   0.1351701   0.1960852  -0.7960055   0.0292037
   1.2902034  -0.2467893   0.1613919   0.0513369  -0.0564615   0.0241249
  -1.0089111  -0.7196160   0.2329831  -0.4658453   0.1447676  -0.1033589
  -0.0371345   0.2335716   0.0025484   0.1513382   0.6044199   0.1741694
  -0.2343704  -0.4165696  -0.3810514   0.0271839   0.1625407   0.1060105
   0.8237203  -0.1082883  -0.1980725  -0.2571690  -0.3371560   0.0341413
  -0.0405478  -0.1980486   0.2812557  -0.7292801  -0.1219079  -0.7064925
   0.4002751  -0.1549152  -0.1936927  -0.0392378  -0.2244952   0.0130574
  -0.3767446   0.8123453  -0.1001622  -0.0594135   0.3075714  -0.0800018
  -0.2151643  -0.0129972   0.0072661  -1.6467029  -1.4950465   0.7706514
  -0.6087937   0.9685329  -1.2079325  -0.1611797   0.1462032   0.0677532
   0.2332396  -0.1941333   0.4181458  -0.2381079  -0.0300315  -0.0014044
  -0.3332449  -0.4800370  -0.1563740  -0.5042811  -0.5781287   0.1665067
   0.0056043  -0.3312218  -0.6095802  -0.0532049  -0.0452704   0.0646668
   0.2362672  -0.2187800   0.0012142   0.2485821   0.3910575   0.2548797
   0.1294964   0.3247539   0.3594295  -1.3292083   0.2128869   0.7816392
  -0.9678881   0.8004086  -0.6900797   0.0786706  -0.2991495   0.0786455
  -0.2901568   0.6518772  -0.9665952  -0.1764012   0.4185101  -0.7229592
  -0.4303947  -0.1228536  -0.0950362  -0.3644390  -0.4105255   0.2777728
  -0.5857364   0.1492003  -0.0621365  -0.0741649   0.0315919  -0.1221151
   0.8575046  -0.7553507  -0.7860637   0.4054398  -0.0273992  -0.4916334
   0.2062210   0.2535965   0.0394902   0.3434537   0.0992212  -0.0128901
   0.5927458   0.1399470   0.0664125   0.0766911  -0.1892780   0.3350475
   0.0759809   0.5473115   0.2111292   0.0688231   1.7600761   0.0142668
   0.1262411   0.2522028  -0.1593129   0.2220405  -0.1084162  -1.4623530
  -0.5187628   0.1967307  -0.6743201   0.1040838  -0.2485221  -0.0425973
  -0.9652814  -0.5422727  -0.8376306  -1.0400690   0.4626396   1.1319695
  -0.1810487  -0.1314665  -0.0630662  -0.2758487  -0.4189575  -0.1128751
   0.0633764  -0.0248429   0.6571464   0.1429537   0.0336866   0.2976059
  -0.4446632   0.5827972   0.6959821  -0.0748125   0.0513148  -0.6127036
  -0.0739195   0.1391048   0.0399813  -0.0341215   0.2842957   0.0496382
  -0.1382133   0.0361577   0.1099062  -0.1468415  -0.5069513  -0.0133498
  -0.7719283  -0.2805909  -0.8761135  -0.3403069  -0.4108603  -0.1592768
  -0.0190591   0.0403545  -0.0123065   0.1639370   0.4108871  -0.0913794
  -0.1270174  -0.3267780  -0.2605491   0.0541736  -0.3310580   0.1174148
   0.2278011  -0.8032170   0.0280145  -0.4079383  -0.3322094   0.1670649
   0.0017544   0.1992978   0.1439029   0.1690285   0.3826950   0.0586598
  -0.2077333  -0.3950148   0.4567296  -0.0131522   0.2741389   0.0785194
   1.2967632  -0.1059861  -0.2629057  -0.7748963   0.9688090   0.5080066
   0.0139451  -0.0499084  -0.2850411   0.7416605  -0.5843790  -0.1604086
   0.7856956   0.4066327   0.5430764   0.0350766   0.0380974  -0.1724129
   0.5648210   0.5941084   0.4085595   0.3365991   0.7987970  -0.1411678
  -0.1842748  -0.0941705   0.0394988  -0.2863629  -0.8147276   0.0943283
  -0.1210872   0.0173324  -0.5536235   0.2388423  -0.2371696  -0.0374184
  -0.1863911   0.0743563   1.3377908   0.6042994   1.5934668   0.7075424
  -0.1157983   0.1204599   0.0600787   0.1156344  -0.0804001   0.2396680
  -0.5988545  -0.6207793   0.6144010  -0.0285492  -0.1303150   0.3549565
   0.2166963  -0.1136492   0.4244457  -0.3487171  -0.0245513   0.2886361
   0.1131568  -0.0077383   0.1379716  -0.4611253  -0.1933226  -0.1868327
  -0.0793542   0.0022004   0.0460856   0.1730727  -0.1038101   0.3678819
   1.0051239  -0.7339053   1.3864065  -0.5046833   0.3248068  -0.1958028
   0.2348575   0.1071434   0.0940865  -0.0847528   0.2442543   0.2784084
   0.2642644   0.1201104   0.2091425  -0.2263800  -0.1069138  -0.1458729
   0.1765056  -0.4989939   0.0837545   1.2467409  -0.0545986   1.0897893
  -0.1520959  -0.0225967  -0.0508561   0.9291668  -0.6595520  -0.2412539
  -0.6949067   0.4665216  -0.0756771   0.0579435   0.1109607   0.1139879
   0.0052917   0.9797360   0.3709578   0.1944094  -0.3542374  -0.1524419
  -0.0869127  -0.0042192  -0.2382140  -0.2088454   0.5280113  -0.6089673
   0.1209374  -0.5067249  -1.5864965   0.0603033  -0.4339986  -0.0815715
  -0.5526665   0.0575534   0.8029264   1.5097258   0.2890584  -0.3535646
  -0.2181976  -0.4091631  -0.1494949  -0.7004598  -0.7452093   0.0893779
  -0.9112253  -1.0151263   0.5960884   0.1979168  -0.1366155   0.1198734
   0.5917743  -0.6608402   0.5195853  -1.1769975  -1.8560830   0.1435762
   0.1731312  -0.1201761   0.0493626  -1.3120046   0.7652890   1.1906079
   0.5790086  -0.3473721  -0.1641786   0.2178718   0.0286175   0.2034270
   0.2445374   0.0994341   0.1920226   0.2080272  -0.0861232   0.1765475
  -0.0117788   0.0342826   0.0069095   0.7927745  -0.1730362  -0.2289187
  -1.0117179  -0.2618431  -0.5592640   0.0229819  -0.1170272   0.0890881
   1.0572674  -1.2497475   0.3249969   0.2558654  -0.2438483  -0.0786931
  -0.0516855   0.2253741   0.1747064  -0.1993237  -0.3341442  -1.8562314
   0.0112762   0.5886858   1.4767296  -0.0556177  -0.2420669   0.1596954
   0.0185346  -0.4319515   0.0914018  -0.7465958   0.9040226   0.5558017
   0.0285219   0.0869252   0.1202996  -0.0662074  -0.0166208  -0.0304708
  -0.0879321   0.2483912   0.1327354  -0.0780614   0.1801961   0.0878048
   0.6742109  -1.0613227   0.6319981  -0.1461380  -0.5075158  -0.7405414
  -0.2846022  -0.3546479   0.2543549   0.0411094  -0.6953249   0.7102573
  -0.4045342   0.2780110   0.5332052   0.1079458   0.1516593   0.3640703
   1.1736775   0.1415360  -0.4542408  -0.9104545  -0.3628935  -0.5192372
  -0.0324819   0.1166213  -0.1482726  -0.6867218   0.1386954   0.3003708
  -0.6196073  -0.2207745  -0.5461589   0.0030467  -0.2708177  -0.0303635
  -0.0381254  -0.5340059  -0.6534622   0.3451400   0.0522486  -0.1741448
  -0.0244549  -0.1416511   0.2984404  -0.2050053   0.0189105   0.5949386
   0.0369272  -0.0826852   0.4376461  -0.2099936  -0.0028160  -0.1736766
   0.0230830  -0.0420912   0.6696996  -0.4918596  -0.4124758  -0.3094598
  -0.1384755   0.0467463  -0.3541339   0.6870227   0.4146962  -0.1751300
  -1.1148437   0.7559613  -0.8960249  -0.4167166   0.1702322  -0.0026262
   0.9777933  -0.8444888  -0.0519134  -0.6874485  -0.0789340   0.6852035
  -0.2633446   0.1005022  -0.0182267   0.1953248   0.6778629  -0.7222420
  -0.8798622   0.6934169   0.4648287  -0.0237545   0.0722027   0.1548702
  -0.1068604   0.2320701   0.1737495  -0.0211803   0.0611986   0.1339608
  -0.1336116   0.1002079  -0.0812310  -0.2764095  -0.4542966  -0.4884109
  -0.1193338   0.1699767  -0.0438796   0.2008797  -0.1118745  -0.0647208
  -0.1184963  -1.7425090   0.6466946   0.3278552  -1.1798488   0.3488995
  -0.0768524   0.2918465  -0.1612578   0.5883945   0.5293434   0.5301622
   0.3239893   0.4215651   0.3272017  -0.0903232  -0.2178678   0.0230333
   0.0468797   0.3873830  -0.7974628  -0.5458813  -1.5543293  -0.3252461
  -0.1134360  -0.0974792   0.3768370   0.0753650   0.5401963  -0.0344842
  -0.0526075  -0.6902183   1.2293290  -0.0562634  -0.1767382  -0.2794465
  -0.4952936   0.6574494  -0.4494541   0.2449530   0.2931009   0.1013083
   0.2270130  -0.0269529   0.3059524  -0.1106824  -0.0959153   1.3246004
  -0.1135716   0.4913669   0.1126226   0.2166330  -0.2164008  -0.0771847
   0.3566136  -0.0992426   0.4629913   0.1765482  -0.1223297   0.2696832
   0.2409921  -0.4136864  -0.1258017   0.4714849   0.2329637   0.0484191
   0.0608620  -0.2767693   0.5258359  -0.0064375  -0.1932764  -0.1602821
  -1.6007466   0.2386318  -0.0949057   1.5380873   0.0258709  -0.3784195
  -0.2117235  -0.0540968  -0.4546075  -0.5104040   0.7126401   0.1039759
   0.2735090   0.4555307  -0.6221469  -0.0842008   0.0088874  -0.0701030
   0.1075744   0.1452935   0.0655919  -0.2339085   0.1672105  -0.1158922
  -0.1720807  -0.3105567  -0.0807556   0.6103468   0.4908721  -0.4650879
   0.1924017   0.1358005  -0.3362086  -0.1949534  -0.2192391   0.0627902
   0.0357090  -0.9104427   0.5208322   0.1476280  -0.5808689   0.2775289
  -0.2128440  -0.1776397   0.1505635  -0.0514941   0.2751273   0.0455103
  -0.2287137  -0.2485258   0.1204004   0.0207645   0.3376743   0.2351218
   0.4189414  -0.0485630  -0.2638927  -0.5778500   0.7764812  -0.1576403
   0.1324244  -0.0104428   0.0778554  -0.9530051   0.0231260  -0.1175285
   0.8682023  -0.3151959  -0.0461056  -0.1335686  -0.1199994   0.1949156
  -1.6432030   0.3537574   0.4604647  -0.3885847  -0.0345022   0.2541388
   0.0510857  -0.0170980   0.2038112  -1.4160559   0.0417669   0.1853526
   1.0395871  -0.9108551  -0.2147464  -0.0580694   0.0353046  -0.0293178
   0.5986365   0.5000473  -0.5077598   1.0663351   0.0268055   0.2702977
   0.1311521   0.2145243   0.1707727  -0.1304650  -0.3714275   0.0741960
  -0.1456274   0.6672658  -0.3293787   0.0510618  -0.2517833  -0.1347282
  -0.4309595  -0.3061667  -0.4129912   0.0757328  -0.1245168   0.1948192
   0.0440331  -0.0684848  -0.3131918   0.7117019  -0.5574353   0.1491393
   0.4441283  -0.8792745  -0.6762880   0.0174753   0.0038798   0.1723956
   0.1929968   0.3470672   0.3002947  -0.3501499  -0.7787833  -0.9293032
   0.0426242   0.0552421   0.2265016  -0.1154666  -1.1264864   0.4665459
   0.7807978   0.3399176  -0.1461764  -0.0756586   0.2324867  -0.0401578
  -0.2623867  -0.1102137  -0.7979223   0.1675229  -0.2763920   0.0538014
   0.2567545  -0.3415726   0.4573482   0.3664830  -0.1289428   0.4219407
   0.5939636  -0.1000724   0.0928012   0.2088578   0.1533240  -0.1116572
   0.2499558   0.7195753   0.1103893  -0.3159104   0.0057096   0.0611494
  -0.0267265  -0.2340404   0.1971637  -0.5545180  -0.1058109   0.7428954
  -0.3447944  -0.2090152  -0.7727223   0.0819708  -0.1041009  -0.2074356
   0.2215575  -0.2947337   0.7139696   0.6001578   0.9392437   0.1084791
  -0.1230412  -0.0560389  -0.0456910   0.2073130   0.1082709  -0.6930280
   0.5311292  -0.0155177  -1.2295472   0.1518350  -0.2334037  -0.2108542
  -0.4895403  -0.1413588   0.2153080   0.4365696  -0.1858385  -0.6281200
  -0.0222134   0.0128102   0.0948282  -0.1932114  -0.0962206  -0.5605932
  -0.0044680  -0.6605795   0.4614628   0.1933603  -0.0992404  -0.0436823
   0.2517589  -0.1370507   0.2205840   0.0282135  -0.0848328  -0.1200039
  -0.3362120  -0.0779157   0.1653160   0.7201404  -0.2487369  -1.1588724
  -0.3903155  -0.1685261   0.1878848   0.0831790   0.0700612   0.0864277
  -0.3367911  -0.6062551  -0.7278880  -0.8829350   0.5566031  -0.7385163
   0.3044404  -0.1438413  -0.1969377   0.3173011  -0.2266758  -0.2305762
  -0.0220639   0.4783671  -0.1517087  -0.0641502   0.4896975  -0.2735646
  -0.5425436  -1.0696241  -0.6598040  -0.2737852   0.2106549  -0.4298155
  -0.0105594  -0.1221589   0.0637337  -0.7323739   0.2786110   0.3618797
  -0.2215666  -0.7070923   0.7049807   0.1751430   0.0121306   0.3693274
  -0.1359084   0.1082888   0.2493991   0.3262721  -0.0502621   0.4211285
   0.0848065  -0.2549737  -0.1295249   0.3488515  -0.5244445  -0.9219687
  -0.3945383  -0.6628467  -0.1919311  -0.2959078   0.3094467   0.3304360
  -0.0729528  -1.3388691   0.1187327  -0.5498139  -0.3955808  -0.1470144
   0.1273651   0.2821682   0.0095109   0.2302618   0.3285722   0.0965364
  -0.0391380   0.3163300   0.0388014   0.3896733  -0.1894854  -0.0427833
   0.2204909  -0.4210882  -0.0836816   0.3633865   0.3374081   0.3377102
  -0.0816013  -0.2433538  -0.0559467  -0.2795860  -0.9135903   0.6261918
  -1.0299405  -0.3795415  -0.2888395  -0.0363083  -0.2824767   0.2944574
   1.1963536  -0.7761023   0.4863813  -0.5159017  -0.0843586   0.2175242
  -0.1946609   0.0503389  -0.1158603   0.3220222  -0.1595807  -0.2470879
  -0.3367768  -0.8893152  -0.0046514   0.0828570   0.4326072  -0.0054185
   1.6300065  -1.0223007  -0.1369154   0.8273666   0.3182169   0.0325037
   0.2593773   0.4806326   0.1418236  -0.7169586   0.7699643   0.3849274
   0.8440950   0.8492182   0.9380805   0.0661519   0.1324709   0.1489825
  -0.0341751   0.7920149   0.2039213   0.9850911  -0.0165694  -0.3450222
   0.1296826  -0.0455913  -0.1937881  -0.0116868  -0.3827877  -0.3872006
   0.1203649   0.0589052  -0.0508543   0.1416539  -0.0219397   0.3246193
   0.4860598   0.2337165   1.0144107   0.6184714   0.1512061   0.1277850
  -0.1406524  -0.1367791   0.0791184  -0.0701516  -0.2475993  -0.0579792
  -0.6371145  -0.0921910   0.2707105   0.1206812  -0.0857579  -0.2870531
   0.7308827   0.5139439   1.7286982   0.3379514  -0.1365257  -0.0628700
   0.4336486  -0.1567807   0.2153473   0.2746038  -0.0679197  -0.3907324
  -0.7529146  -0.1015764  -0.4734511   0.0871899  -0.0719421   0.0457406
  -0.1058779   1.8239438   0.2537454  -0.0135769  -0.3412283  -0.0931900
  -0.1340257   0.0880847   0.1708544   0.0192487  -0.0318632  -0.0633192
  -0.1479126   0.1774149   0.0107044  -0.2232385   0.0551402  -0.1770731
   0.8276293  -0.0443344   0.2208086  -0.6659779   0.9706126   0.3311373
   0.1922411  -0.3887943   0.1436354  -0.2214602   0.1632750  -0.3499848
   0.9192923  -0.9437210  -0.9569213   0.1425086   0.1313381  -0.5219438
   0.2003362  -0.1444845  -0.6753230  -0.0872987   0.0161454  -0.2963977
   0.0148244  -0.0187277  -0.2189040  -0.0975159   0.5134292  -0.9599945
   0.7712625   0.0504731  -0.8252824  -0.0987685   0.0276579   0.0149877
  -1.3708235  -0.1489364   0.2578517   1.3021892   0.3755658  -0.6417155
  -0.1348572   0.1570548  -0.2861242  -0.0923422  -0.3610494   0.0754406
   0.4221679  -0.1367435  -0.4553783   0.3924143   0.0201059   0.0954820
   0.2554773   0.0474515   0.0800408   0.3202049   0.0958991   0.1086248
   0.1487435   0.1866584   0.1956334   0.4772219   0.4683347  -0.2087891
  -0.1591724  -0.6335516  -0.8924320  -0.0411662   0.1194705   0.1745945
   0.2615956   0.0624597   0.1301762  -0.1780385  -0.0802618   0.5217896
  -0.0135573   0.2627658  -0.1665687  -0.4393982   0.0059482  -0.3672726
   0.1177916   0.1087132  -0.0189832  -0.2028556  -0.0064800   0.3219896
  -1.0429800  -0.7654858   0.0090407   0.7817332   0.7967029  -0.1425736
  -0.0033537  -0.0311793  -0.0093970   0.2411869  -0.0128543   0.1934785
   0.5704921   0.0106694  -0.7107535  -0.0881594  -0.0937415  -0.3115640
  -0.2323300  -0.0159455  -0.1316444   0.0239439   1.2202778   0.7591152
   0.0920970  -0.1609374   0.2726266  -0.3959179   0.1352451   0.2847299
  -0.3815883  -0.8996692   0.3091504   0.0079725  -0.2973700   0.1708317
  -0.4586408   0.3949093  -0.0782263   0.3933994  -0.3750486   0.8375516
   0.3607679  -0.1518433  -0.0200939   0.2157622   0.1284576  -1.1292778
   0.6942251   0.3687123   0.6484836  -0.1319772   0.2112835  -0.0682173
  -1.2073641   0.1706621   1.7712353   0.2746049   0.2495261  -0.9914843
   0.1456453  -0.0136275  -0.2804886   0.1674703   0.6229069  -0.9378765
  -0.1246451  -0.9518165   1.2900603   0.5179113  -0.1330493  -0.1323527
  -0.1509138   0.9860021  -0.0733596   1.4642169  -0.0387069   0.3806191
   0.1169785  -0.0753282  -0.2489800   1.4276341  -0.2154884   0.7311557
  -0.1369217   0.3469262   0.3286548  -0.0525715  -0.1705323   0.1061149
   0.2859633  -0.2469144   0.9025652   0.8429147  -0.0330091  -0.3399612
  -0.2028609   0.2108691  -0.0767699  -0.0862997   1.0333055   0.9401890
   0.8243032   0.5476351  -0.6415372  -0.0450364   0.0048189   0.1322919
   0.1134175   0.6827791   0.0821373  -0.4637157  -0.0053010   0.7466181
   0.3767970   0.1182464  -0.1856164   0.7708652  -0.0007116   0.0048561
  -0.2382597  -0.4139065  -0.1389266  -0.1044286  -0.0327810  -0.2913930
   0.3322629   0.1383561   0.2553922   0.2081760   0.1264111   0.4294534
  -0.1231047   0.2426814   0.1959667  -0.2628040   0.0968786   0.1063729
  -0.0430749   0.4132440   0.5948895   0.0099949  -0.2348875   0.0551659
  -0.0347045  -0.2214284  -0.1750882  -0.0027242   0.1532549  -0.8438756
  -0.1985021   0.1759747  -0.0283582  -0.1068626  -0.7114043  -1.8798266
  -0.2977169  -0.0975901  -0.3271770  -0.2983189   0.2684820   0.2402319
  -0.3320093   0.0331037   0.3149110  -0.2097081   0.5712328   0.1955979
  -0.0594455  -0.0822120   0.1859117  -0.9845346  -0.1488248  -0.4786465
  -0.0764556   0.4940447   0.2155670  -0.1421962  -0.0852436   0.1928237
  -0.2147732   0.5846713  -0.7124054   0.3579862   0.4041954   0.4648984
  -0.3506720   0.1496692   0.0899335  -0.2411317   0.4176540   0.4328156
   0.0741080   0.9840144  -0.8098156   0.4930067   0.0971532  -0.0855718
   0.9681661  -0.1886034  -0.6373924  -0.0673059   0.4782104  -0.4202024
  -0.1603121   0.1317774   0.3150526  -0.4073835  -0.1628540   0.6470341
  -0.0446565   0.3196510   0.1752767   0.3204584   0.0153643   0.0808436
  -0.5619544   0.6254925   0.7879621   0.9569248   0.3383120   0.3844888
   0.4831216  -0.2412925  -0.1945084   1.0964694   0.0595349  -0.5958903
   0.3085864  -0.4167005  -0.8817096   0.0789044   0.2568411  -0.1831925
  -0.4991172  -0.0465904   0.4846756   0.2771329   0.0739147  -1.1919298
   0.3707312  -0.0543297   0.0845603   0.0720662  -0.1335518   0.3589759
   0.7544411  -0.4901260   0.2445477  -0.0187712  -0.0026521  -0.2959382
   0.4925082  -0.2179563   0.0221575   0.0747935   0.6486757  -0.0596744
  -0.1792083  -0.2106126  -0.1921715  -0.5713951   0.5188244   0.5585429
   0.3165845   0.1148249  -0.6437755   0.2767792  -0.1551702   0.5490898
   0.0532366   1.4588807   2.3616856   0.4114494  -0.2823700   0.4709720
   0.2163968  -0.1557208  -0.2267939  -0.0597752  -0.6433856   0.5310597
   0.3277860  -0.3215445  -0.5084373  -0.2856337  -0.2127240   0.2147632
  -0.0589204  -0.1553931   0.8444389  -0.8519682  -0.4714331   0.7877517
   0.2356420  -0.2228132  -0.4879446  -0.3980630   0.1208114   1.4211283
   0.6794405   0.2146608   0.1640705  -0.2579461   0.0829379  -0.0626756
  -0.5241500   0.0907264   0.2094478  -0.1949646   0.1209577  -0.0025946
   0.1019684  -0.0592096   0.1202619  -0.9305516   0.3719876  -0.7353509
  -0.7154552   0.2666939  -0.5142725   0.0560557   0.0564029   0.0726990
   1.4477733   0.5016388   0.4969041  -1.1704101   0.4084486   0.0950307
  -0.1673721  -0.2137782   0.2666211   0.2654847  -0.3922669  -0.2674977
  -0.2103297   0.3960750  -1.0249273   0.0824476   0.1428078  -0.0238111
   0.4341762   0.3879559   1.1489859   0.9055680  -0.8157593  -0.2449975
   0.0502091  -0.0294510   0.0676934  -0.1363308   0.6670281   0.1080207
  -0.4989711  -0.4191695  -0.0710949   0.2717611   0.3379526   0.0170842
  -0.4181563   0.1347403   0.2927552  -0.6235034  -0.2451707  -0.3826121
  -0.1418621   0.1651366  -0.4461727   0.1982401  -0.3188364  -0.2608916
  -0.8734583  -1.0339502   0.2503129  -0.3375735  -0.1041691   0.3322558
  -0.2578499   0.0564386   0.3652755   0.0602112  -0.5337600   0.5437162
  -0.0846861  -0.2211053   0.0969283   0.6832970   0.2934471   0.0001035
  -0.7820433   0.0327474   0.1451099   0.2708423  -0.2316832  -0.0629769
   0.6604802  -0.5467616  -0.1698627  -0.2013266   0.2704629   0.0470576
  -0.1145569  -0.2082998   0.1704391  -0.3011780  -0.3664422   0.6220919
   0.2163649   0.3916114  -0.6714055  -0.1016101  -0.0689824  -0.2186500
   0.1669596  -0.5579581   0.2649389   0.5031242   0.3873572  -0.9288508
  -0.1457617   0.0924746   0.1451606  -0.7175986  -0.2388559   0.3322464
  -0.0241859   0.1414174   0.2047874  -0.2448276  -0.0387945  -0.1157803
   0.0215091  -0.5540097  -0.1893140   0.8882679  -1.1499822   0.1275670
  -0.0298096   0.0850536  -0.0522700   0.5560283   1.1920370   0.2456437
   0.5963243  -0.3336673  -0.7227815  -0.0039307  -0.0913554  -0.2388705
  -0.1489409  -0.3280935  -0.0774388  -0.0875245  -0.7804457   0.3350645
   0.2777157  -0.4364686   0.3678953   0.1457066   0.0519393   0.4939673
   0.3511049  -0.0983160   0.5682171   0.0257226  -0.3557117  -0.3319239
  -0.0994694   0.0609252  -0.3011416   1.0678550  -0.9001986   0.5396379
  -0.0225097  -0.1053267  -0.0734901  -0.1579755  -0.0930491  -0.0947626
  -0.5878074  -0.5997376   0.1615481   0.0355746   0.0607733   0.3373892
   0.6892018  -0.2378151  -0.1604125   0.4959467  -0.4168572  -0.0649635
   0.1842830   0.1234065   0.0497818  -0.1114113  -0.4254369  -0.0789818
  -0.4615732  -0.2874888  -1.5609149   0.0247570   0.0103075   0.1134611
   0.2865358  -0.6269448   0.2568194  -0.0402564   0.1599685   0.0804032
   0.1491982   0.1149569   0.3106434   0.1495014   0.4182006   0.5553849
  -0.1555699   0.1486795   0.0854041  -0.1110883   0.1321568   0.1327425
  -0.7309605   0.7577331   0.4243906  -0.2571703  -0.4566838   0.6085541
  -0.1052795  -0.1494594   0.1105528  -0.1122702  -0.8773118   0.1538550
  -0.1596604  -0.0407722  -0.7638753   0.2578613   0.1355850  -0.0631080
   0.8009587   0.3758741  -0.1710130   1.0306285   0.5064981  -0.2268030
  -0.0222771   0.2132062   0.0086357  -0.2209589   0.5659181   0.2431878
   0.3288450   0.2314021   1.2026073   0.0987343  -0.1697558   0.0044295
  -0.2535817   0.8695688   0.2051405  -0.1906203   0.2460158   0.3661399
   0.0177124  -0.4477507   0.2491119   0.1419107  -0.2507201  -0.3259589
   0.3509307  -0.4943150  -0.3526521   0.1452598  -0.2475283  -0.2194094
   0.7723670  -0.1362029  -0.1165783  -1.9913476  -0.3858976  -0.6459825
  -0.1391290  -0.0626212   0.0052556  -0.2007734   0.4100560   0.1204352
   0.2010106  -0.6646118   0.1619204   0.0417198  -0.0101810  -0.2693677
   0.3815942   0.5939287  -0.4951063   0.0611466   0.4376986   0.6658569
  -0.1110242  -0.0796391   0.0069068   0.4567050   0.7870246   0.0373169
  -0.2831222  -0.2566427   0.1424411   0.2846850  -0.1262851   0.0184377
   0.5464067  -0.5344159   0.3066672   0.5947376  -0.5972737   0.3478573
  -0.0918181   0.0332543   0.1549789   0.5843746   1.4575013   0.4751837
  -0.5004203   0.2085421   0.0971652   0.0722956   0.0575146  -0.2636756
   0.0471841   0.0184621   0.1772129  -0.1445690  -0.2546537  -0.4745152
   0.3138422  -0.0176064  -0.0418308   0.3756421   0.8119696  -0.3832356
   0.2747406  -0.2180176   0.8708664   0.1671624  -0.1727124   0.2330196
  -0.2961157   0.5457492  -0.6411194  -0.0684320   0.7910472  -0.5787692
  -0.0977220  -0.0936213   0.0950920   0.4933246   0.4128117  -0.1247436
  -0.5810702  -0.6057220   0.3066371   0.3638837   0.0474633  -0.0243344
   0.7442905  -0.0692164   0.7749736   1.0702422  -1.0096945  -0.3423160
  -0.0845274  -0.0544714  -0.1601735   0.0185878  -0.2742228  -0.5126957
   0.1556480   0.1776802  -0.2185612  -0.2943189  -0.4386448   0.2047268
  -1.2941131  -0.2840442   0.1835789  -0.2638843  -0.1296131   0.1141767
  -0.1141208  -0.3798396  -0.0166818  -0.2956885  -0.5627302   0.0051416
   0.4635274  -0.5540843   0.0939014  -0.0830596  -0.1123032  -0.0566500
  -0.3988870  -0.4216554   0.8488384  -1.0761762  -0.5436426   0.7571054
   0.0253528   0.2516940  -0.0175405   0.1762664   0.5550416  -0.1316381
  -0.0824268   0.0136119   0.2256092  -0.2328969  -0.1714787  -0.1583635
  -0.4013256  -0.5378263   0.1756208  -0.4501621  -0.2169947  -0.7079378
   0.3644334   0.1089599   0.1316281  -0.0353765  -0.9983571  -1.1864358
   0.6241053   0.2633879  -0.4446094   0.1913088  -0.2209564  -0.1414299
   0.6330802  -0.5664544  -0.7707572  -0.3063623  -0.0843552   0.2553584
   0.2735034   0.1006229  -0.0632601   0.3545260   0.5844051  -0.5412432
   0.7935667  -0.6634508  -0.4853373   0.3180867   0.0121239   0.5031557
  -0.0132899   0.7281661   0.7545928  -0.6869876  -0.7407070  -2.4011001
   0.0180539   0.1762220  -0.2014379   0.1662376   0.2917667  -0.4528260
  -0.1608287   0.4821462  -1.0202230  -0.1412238   0.1905882  -0.2469780
  -0.0872682  -1.0498363  -1.3104868  -1.1622634  -0.3074326   0.3246270
   0.1206360   0.0611717  -0.2221743   1.0021455   0.1685269  -0.3302009
   0.2120122   0.2401470  -0.3011098  -0.1578560   0.4218919   0.3888242
  -1.2040588   0.4656156   0.7882931   0.6791390   0.9592536  -0.3220891
   0.2229646   0.1873158  -0.0115938  -0.1738458   0.7749338   0.4242400
   0.5773035  -0.1284378  -0.7254728  -0.1028469   0.0729145  -0.0720632
  -0.7445364  -0.3685464  -0.4360725  -0.0239223   0.0399553   0.1537004
   0.0685446   0.1186582  -0.1105480  -0.4079230   0.3021222  -0.3103094
  -0.1383947   0.3696656  -0.5262322  -0.0966386  -0.0495501   0.1220449
  -0.0442273   0.5379681  -0.0323364  -0.0536743   0.2508953   0.0110431
   0.1576491  -0.0083681   0.0068391   0.0204698  -0.1904155   0.0595787
   0.2866088   0.2179052  -0.6475529  -0.1191792   0.0682763  -0.0145721
   0.3647280  -0.3650697  -0.6299950   0.0033788  -0.3018887  -0.1843639
  -0.3156564  -0.0200014   0.3404509  -0.1322613   0.1425444   0.3041121
  -0.6604110  -0.2974663   0.3776548  -0.0111088   0.1419903   0.0375917
   0.0317966  -0.1430810  -0.7960630   0.6885415   0.6625731   0.1416655
   0.1175354   0.2602673   0.0276931  -0.0513766   0.3993195   0.7957883
   0.7267589   0.3578085  -0.1262559  -0.1377137   0.1013130  -0.2834386
   0.4552968  -0.4341270  -0.8355868  -0.9460137   0.3135344   0.1837957
  -0.1528092  -0.1713388   0.2398476   0.1557950  -1.4980085   0.3424939
   0.0104311  -0.2661861  -0.1188842   0.0672054  -0.1447963   0.0874624
   0.0929258  -0.1232586   0.0777077   0.2834969  -0.2130960   0.2638103
   0.5045164  -0.3600413   0.0934727  -0.1038746  -0.8290196   0.3427655
   0.4848930   0.2099819  -0.3118842  -0.3293435  -0.0512965  -0.0114482
  -1.3179592   0.3023621  -0.5257763   0.3142659  -0.1598593  -1.0972471
  -0.1374398   0.0338963   0.1355051  -0.3776827   0.1498385   0.3033902
  -0.0066141  -0.0236678   0.0900605   0.2955615  -0.0341909  -0.1131875
  -0.0904580  -0.3937410  -0.9441566   0.3713368   0.4328929   0.4585742
  -0.1565839   0.1174561   0.1294613  -0.5448402  -0.0525646   0.2002325
   0.1469652  -1.1479130   0.6876399  -0.0152121  -0.3121022  -0.1427473
  -0.0760860  -0.2170941  -0.3106794  -0.2123359  -0.3887884  -0.0207778
  -0.1645815  -0.0850166  -0.3584759  -0.8455811   0.2258315  -0.8203001
   0.0621934   0.6002283  -0.3922785   0.0775904  -0.1266888   0.1036980
   0.7718757   0.4925482   0.9402428  -0.4972564   0.8421608  -0.7510449
  -0.0838639   0.1271211   0.0624266   0.1997747  -0.1210977   0.3084199
  -0.0012138  -1.0395383  -0.1195552  -0.1668944   0.0184136  -0.0393282
  -0.2843915  -0.3903210   0.5103645  -0.2039903   0.5091874  -1.1487229
   0.0002015  -0.0920019   0.1138596   0.1089572   0.0665102  -0.3653269
  -0.5428349  -1.5406040   1.6836051  -0.1266254   0.0802472  -0.2186384
  -0.3360733   0.6255282   0.3134523  -0.0281537   0.4755590  -0.4573032
   0.1014266   0.2336400  -0.3230865   0.1812828   0.2361640  -0.4098561
   0.0017699   0.2131032  -0.3550198  -0.4064884   0.3995193  -0.1627701
  -0.1699679  -0.8512011  -0.7047569   0.1088272   0.1740669  -0.2997483
   0.1594671  -0.1420834  -0.3484812  -0.0630665   0.5753762   0.0502908
   0.2722854  -0.6975150  -0.6572486  -0.0294703   0.2073481   0.2046846
  -0.0325683   0.2047671   0.2336128   1.5992223   0.0560234  -0.3779327
  -0.3478836  -0.1246988  -0.1379622   0.0813357  -0.5421750  -0.2919371
  -0.2335840  -0.1180150   0.0739550  -0.0486853  -0.1011172  -0.3542569
   0.7581453   0.0604441  -0.1506147  -0.5698795  -0.2342669  -0.4738534
   0.2345239   0.3409074  -0.1035534   0.3293685   0.4058390  -0.0696820
   0.5213797   0.0168738  -0.6905938   0.0353938  -0.2444167   0.0259623
   0.3362593  -0.3308884   0.7763672  -0.0874340  -0.4074728   0.1648419
  -0.0249248   0.2502419   0.2294935  -0.0523523  -0.6268068  -0.5525329
  -0.5119402  -0.0647538   0.3802384  -0.2189846   0.2753381   0.0392022
  -0.9386847  -0.3871039   0.2496637  -0.7262406  -0.2727265  -0.3306404
  -0.2801148  -0.0024863   0.1788119   1.1376110  -0.1934603  -1.6240334
  -0.2269097   0.8476781  -0.2406503   0.1446381   0.3951897  -0.0278211
  -0.8486220  -0.9165067   0.2118777  -1.1981499  -0.2466543   0.3360151
   0.2723613   0.0536083   0.1055901  -0.5476056  -0.8376982  -0.1638507
   0.6381981   0.0782730  -0.3102513  -0.0834368  -0.0033632   0.0611822
   0.6379108  -0.8943863  -0.0871492  -0.3210494   0.2090987  -0.1749377
  -0.1173476  -0.0737636   0.2078551  -0.4627521   0.4556538   0.2853684
   0.8649082   0.5188845   0.5728826  -0.2375222   0.0270316   0.0669766
  -0.4749809  -0.0023904   0.7421389   0.1239703  -0.2061498  -0.3818438
  -0.0706773   0.1532637  -0.0010214  -0.2904259   0.4654550  -0.4339027
  -0.7634969   1.0027203   0.3832063  -0.4430259  -0.0097402  -0.0305635
  -0.5921965   0.1553762  -0.0330947  -0.4180899  -0.3275725   0.5401203
   0.3221083  -0.2687397   0.2144051   0.7285596  -0.6067291  -0.1849305
   0.2372828   0.6199981   0.1585715   0.1313230   0.0679148   0.0101198
   1.5126222   0.4808056   0.2205061   0.5535064  -0.6352094  -1.6327091
   0.0340798   0.1448174   0.1969560   0.4464637   0.3053866  -0.3149641
  -0.9579923   0.3833369   0.7525520  -0.3767066   0.1584763   0.2080977
  -0.7687477   0.8213409   0.2168172   0.7102592   0.1818665   0.1090321
   0.2343573  -0.1029636   0.1071514   0.1806722   0.5765951  -0.3751006
  -0.0879349   0.1689933   0.6351766   0.0942035   0.2324764  -0.0124061
   0.5825235   0.3231971   1.0045167   0.4316793   0.2633778   0.5335730
   0.1480501  -0.0691293  -0.1889167   0.2525564  -0.1031058   0.1710007
   0.4789260   0.5012724   0.6815204  -0.3005926  -0.0103615   0.1215442
   0.3123624  -0.0516163   0.1806776  -0.2079681   0.7086963   0.0328409
  -0.0167409   0.1635673  -0.2938741  -0.0061797   0.3625850   0.2312718
   0.1147789   0.0109440  -1.2214713  -0.2170216  -0.2944328   0.0433458
  -0.0969024  -0.5904970  -0.3246923  -0.4885868  -0.0753164   0.2017870
  -0.1005280  -0.2272246  -0.0072855   0.8197018   0.2310535  -0.9531663
  -0.0879252   0.2994369  -0.3110594   0.0933478   0.2711306   0.1994364
  -0.3562624   0.5448822  -1.4666266   0.9249231   0.1212014  -0.8870306
   0.1999796  -0.0356531  -0.1162934   0.6857994   0.3525583  -0.9848213
  -0.2880152   0.6021264   1.0245224  -0.0913762   0.1833137  -0.3059027
   0.2753801   0.4053074  -0.0041916  -0.6098394  -0.9354151  -0.5387561
   0.0834442  -0.0689162   0.0160119  -0.1762336  -0.3497707  -1.0285487
  -0.0385763   0.1176927   0.2824591  -0.0456875   0.1428587  -0.1328368
   1.0245565  -0.2549872  -0.4471981  -0.2925449   0.3120195  -0.2731270
  -0.1601914  -0.0572663   0.3420036  -0.0062482   0.1276164   0.3303598
  -0.7443508   0.1104284  -0.2349526  -0.2311108   0.0427211   0.1127668
   0.6607402  -1.3231833   0.0270365  -0.6994012  -0.6850718   0.1782504
   0.1492083  -0.0627351  -0.2573185  -0.0241641  -0.1164203  -0.1327181
  -0.5953975  -0.3316610   0.2559603   0.0566853   0.5065152  -0.1807022
   0.5420473  -0.4103057   1.2529527   0.1445135  -0.3047184   1.0019299
  -0.0452615   0.2383724   0.1899246   0.5536438  -0.7798845  -0.5864085
   0.4163284  -0.7173589  -0.2465801   0.0259590  -0.0439575  -0.0025820
   1.0999623   0.7085566   0.5820419  -1.4185015  -0.2790345   0.2739530
   0.1639258   0.1450521   0.0231535   0.6939966  -0.1858587  -0.2649981
   0.4011681   0.5965929   0.1536990   0.3224918  -0.1433743   0.3729793
   0.2583847  -0.2168017   0.0765543   0.3807904  -0.0847505   0.6905880
  -0.1930094  -0.0151210  -0.2877979  -0.5425981  -0.1623026  -0.2831848
  -0.0047459  -0.2207322  -0.6002906  -0.0429911   0.1508906   0.1867382
  -0.2276616  -0.7834365  -0.0833293  -0.5088684  -1.4826638   0.2392143
  -0.2850367   0.2759897  -0.1455169  -1.1542485  -0.3493252  -0.3688698
  -0.1982403   0.1423518  -0.0003399  -0.1622207  -0.3043989  -0.2305377
  -0.6259724  -0.4088577  -0.1167084  -0.4002178  -0.6907029  -0.3360448
   0.1244269   0.0780826   0.2722577   0.2915696   0.4032264   0.1496439
   0.2700586  -0.9299549  -0.1881736   0.0286984   0.1515830  -0.0684493
  -0.3943499   0.0129328   0.1635539   1.0103682   0.2689547   0.7075457
   0.2196287   0.0664525  -0.1201395   0.1377422   0.0894795  -0.1603993
  -0.2925061   0.2746728   0.1313602   0.1231536  -0.0616632   0.0071139
  -0.0529822   0.4993054  -0.0394063   0.0925941   0.7411270   0.9595847
  -0.3335991   0.0719701   0.0350366   0.0284758   0.0177859  -0.0712574
  -0.9156744   0.0960058   0.4738445   0.0741002  -0.0542826   0.0813765
   0.0353503   0.2166900   1.1409703  -0.9005662  -0.1746800  -0.2460657
  -0.0868975  -0.0041948   0.0424568   0.4621389  -0.7047762   0.0060307
   0.1712787  -0.0608155  -0.1681310  -0.0606494   0.1236028   0.2214933
  -0.1841000   0.1319398   0.4510753  -0.0090796  -0.1752052   0.1510558
   0.2544675   0.0558881   0.1429890  -0.9280756   1.1789726   2.1161299
   0.1316949   0.0968659   0.7515469   0.1676232  -0.1171359  -0.0571069
   0.9373675   0.4143200  -0.8952784  -0.2734247  -0.4026379   0.4031424
   0.3085923  -0.0307469  -0.2925807   0.0593955  -0.4614036  -0.2758939
   0.6253830  -0.0285907  -0.6847577  -0.2105659   0.0371144   0.1755289
   0.1522111   0.8198620  -0.4156465   0.4025127  -0.4964111  -1.2836088
   0.1981284   0.1905753   0.4389501   0.5283410   0.5822826   0.4626464
   0.1104850   0.1208772   0.0316115   0.0559989  -0.3816213  -0.2009916
   0.3483680  -0.5288551   0.9678860  -0.5308334  -0.8831178  -0.5029103
  -0.4637317  -0.1891130  -0.2143634  -0.7803366  -0.0079478  -0.2564241
   1.6722220  -1.9412376   0.4454592   0.3245941   0.0159339  -0.0273876
   1.0131853  -2.3035112  -0.6787232  -0.5217443  -0.2806716   0.1926995
   0.2169361  -0.0182867  -0.1486937   0.2568842   0.2687248  -0.7636159
   0.1798835  -0.4557432   0.5078787   0.4203805   0.0282033   0.0234043
   0.6785672  -0.2358019   0.0122710  -0.1974292  -0.3893520  -0.3087766
  -0.0694614   0.2330772  -0.1740537  -0.2610114  -0.0704089  -0.9709696
  -0.1394857  -0.9440742   0.0348307  -0.1016806  -0.0724368   0.1277873
   0.0016752  -0.0993720   0.0659947   0.3636397  -0.0966611  -0.2250821
  -0.1383300  -0.1740502   0.1178166  -0.3644574   1.1337731   0.0572555
  -0.3554793  -0.2882164  -0.5636065   0.0618397  -0.2312921   0.0557207
  -0.1145652  -0.9309269   0.1076987   0.3205900   1.4384451   1.7955418
   0.0585467  -0.0605974   0.0840269   0.1848428   0.3491997   0.3995195
   0.0673014   1.1398441   0.7393533   0.1955381   0.0727243   0.2418900
   0.3049267  -0.0089941  -0.1282218  -0.2685723   0.6044613  -1.0114171
  -0.0404109  -0.3479746  -0.0533697   0.5840098  -0.2587536  -0.1848256
   0.0792039  -0.5379352  -0.4712521   0.2875894  -0.0390783   0.3707481
   0.3906452  -0.0376819   0.0099511   0.7701989  -0.0782842  -0.6272151
  -0.3366749  -0.0890307  -0.2631495  -0.2252880   0.3480903   1.0999537
  -0.0228319  -0.3197717   0.7309008   0.3053439   0.1563805   0.2334762
   0.5728101   0.5883813   0.2888108   2.1100804   0.7319187   0.3370129
   0.1600905  -0.3626407   0.4781851  -0.2141691  -0.5595045   0.5601048
  -0.3784162  -0.6888543   0.4180414  -0.0116641  -0.1055839  -0.2223484
  -0.3024072  -0.1338525   1.1097328   0.8759415   0.7379642  -1.6642669
   0.0154806   0.0026885   0.1918406   0.3218906   1.7209296  -0.0249291
   0.6579891  -0.0899301   1.8715588  -0.2900213  -0.2613896   0.0275052
  -0.0092312  -0.7267794  -0.6228371   0.4275539   0.0581651   0.5527281
  -0.2822190  -0.0911372   0.1384827   0.4854094  -1.6215560  -0.0943773
   0.2400480  -0.5944790   0.3244741   0.0827612  -0.1323783  -0.2542288
   0.3871138   1.0425830  -0.0315639  -0.9009702  -0.5432672  -0.7536094
   0.0965569  -0.0075271   0.2946971  -1.0957292  -0.3853338   0.8555498
   0.8128743   0.0500878   0.9542809  -0.0818416   0.0110751  -0.0351523
   0.9324835  -0.8427584   1.7875455   0.5219920  -0.1586915   0.0591800
   0.1139624   0.0689515  -0.2142764   0.6628962   0.6162853  -0.3529222
   0.5526454  -0.6774669  -0.2999017  -0.0649239   0.3833207  -0.2973996
   0.2897398   0.1880145  -0.1266274   0.1776086  -0.5174038   0.1143614
  -0.2157994   0.0594556  -0.3361312   0.1771351   0.0269164  -0.2140767
  -0.6020275   0.7300154  -0.2842216  -0.0852721  -0.2318416   0.0755663
  -0.1788672  -0.2024657  -0.0443321  -0.2377965  -0.0343757  -0.1488483
  -0.1185695   0.1753769  -0.1021151   0.7767665  -0.0381617   0.2769964
  -0.0227846  -0.5891745  -1.0524278  -0.0033420  -0.0330901   0.2114413
  -1.3473681   0.6763520  -0.0460971   0.9738852   0.7249631  -0.4749585
   0.0503905  -0.0087820  -0.1507704  -0.3445160   0.1719366   0.1239210
  -0.1065881  -0.0633533   0.4140294  -0.1906325  -0.0682936  -0.0411956
   0.9700897   0.3874015  -0.0804347  -0.2514891  -0.2648025  -0.0982545
  -0.2352151   0.0285049  -0.1144257  -0.1415965   1.0300263   0.8722143
  -0.5492334   0.1360320  -0.4107729  -0.2689819   0.1173997   0.0582426
  -0.1851194   0.4008731   0.2425268   0.6906699   0.0098208  -0.0404718
   0.2354629  -0.0350830   0.0259932  -0.2586149   0.0370460   0.6211375
   0.3044222  -0.0590506  -0.0187551  -0.0392632   0.1207931   0.4508275
   0.9491541  -0.1100782   0.3442087   0.2212509   0.0652716   0.4240843
  -0.1523032  -0.2578347   0.0558198  -0.9849170  -0.6822096  -0.5481516
   0.3980742  -0.7624404  -0.0527224   0.3018811  -0.0192424   0.1574283
   0.1980401  -0.1022297  -0.4098667  -1.1472877  -0.1410629   1.4093495
   0.0475970   0.0793846   0.0633492   0.2281172  -0.4364972  -0.3949495
  -0.4844201  -0.1294532   0.8031265   0.0844560   0.0965130  -0.0551939
  -0.2294419   0.0805241  -0.2988982  -0.2215131   0.4190009  -0.4459862
   0.3968716  -0.3000759   0.1653939   0.0003537  -0.2789799  -0.4590593
   0.5898530  -0.5772623   0.6302951  -0.1304756   0.0606208  -0.2219992
  -0.0513779  -0.2458679   1.3274385  -1.4071545   1.0257956  -0.5784596
  -0.1580971   0.0759557  -0.0911416   1.5258943  -0.5927276   0.9230496
   0.3325051   0.1879598  -0.2692939   0.1647742  -0.0263250   0.2948269
   0.5906381   0.7602955  -0.7858013  -0.6377987  -1.0405383   0.3269682
  -0.1233816  -0.4926472  -0.0565978  -0.0933581  -0.1194629   0.2398069
  -0.2257811   0.4227687   0.3798841   0.1352741  -0.0391028  -0.1304974
  -0.1991673  -0.3500988  -0.1534127  -0.0467978   0.1445674  -0.1661878
  -0.0408334  -0.1892426  -0.2023432  -0.1894328  -0.1984284  -0.3249893
  -0.1964205  -0.1098182  -0.1421221  -0.0928444  -0.1964432  -0.0953448
  -0.2003059  -0.8806468  -0.6437873  -0.4415922   0.8848024   0.7660974
   0.0674540   0.0539943  -0.0722908   0.3560479   0.0873793   0.5201569
  -0.2781696   0.2125899  -0.0451151  -0.3471425   0.2596943  -0.3267972
  -0.7192233   0.5072654   0.5829750   0.2172899   0.0576147  -0.9112169
  -0.2650814  -0.1006299   0.0414550  -0.5039072  -0.3582493   0.1573924
   0.4110639  -0.3732524  -0.2412551   0.0170735  -0.3372291  -0.0606495
   0.4736000   0.4966350   0.4746833   0.0488963   0.4214814  -0.2604401
   0.3586995  -0.1890733  -0.2319715   0.4207891   0.5539557   0.0728129
   0.3239177  -0.7820804  -0.4398048   0.1028550   0.1442442  -0.2394570
   0.0755929   0.7372368  -0.3237973  -0.3781801   0.2135210  -0.0887389
  -0.0943512  -0.1653099   0.3212031  -0.4446565  -0.9982961  -0.6459197
   1.1202143   0.7970442   0.1372726   0.0763198   0.1927641   0.2083663
  -0.4335218  -0.4847797  -0.7525895   0.1994730   0.4812839   0.3659842
  -0.0470053  -0.1640740   0.0202329   0.1653761  -0.2941756   0.9929622
  -0.3327886   0.8173802   0.0609349  -0.0584247   0.0658143   0.3093693
  -0.2545589   0.4580927   0.3384158   0.4260628  -0.3880824  -0.7096106
  -0.0331329   0.2888073  -0.0863201  -0.5955126   1.5493018  -0.6581129
   0.3649352  -0.3955883   0.0615604   0.1498099  -0.0006718  -0.1493080
  -0.3289450   0.5147968   0.6945645  -1.0404949   0.0422622  -0.0664613
   0.3584767   0.0577351   0.0240741  -0.3579086  -0.6008133  -0.0406000
   0.2185644   0.0290230  -0.3860971  -0.2467289   0.1505466  -0.3421457
  -0.1524287   0.1156480  -0.4359989   0.5517431  -0.0916013  -0.8463926
   0.1301408   0.0805638   0.3005067  -0.1604348   1.1022996   0.2285497
   0.6492434  -0.4634936   0.3790301  -0.1144960   0.0382390  -0.0982080
   0.2423200  -0.5792487  -0.2136093  -0.7930779   0.0093960   0.5489887
  -0.4322364  -0.3401760  -0.2131782  -0.1192338  -0.1920264   0.4414950
  -1.0427099  -0.0014372  -0.0265948   0.1150011  -0.0524552  -0.1942955
   0.6424227   0.5936787   0.2140484  -0.3372941   0.2264519   1.2537371
   0.0916023  -0.1341896   0.0888201  -1.3603640  -0.3276248  -0.5260351
   0.0348314  -0.8737532  -1.3846793   0.0247834  -0.0672048   0.0140373
  -0.4479310   1.4341500   0.1737762  -0.3152213  -0.2442437   0.1404305
  -0.1034848  -0.0829473   0.1100142  -0.5434110   0.0697528  -0.1797999
   0.0184537   0.7402278  -0.2440411  -0.2395623  -0.1174733   0.1150725
  -0.7787109   0.0159227   0.4252261   0.1932808   0.1085477   0.7620987
   0.0814807   0.0310410   0.0408468   1.6697333  -0.3104625   1.1304382
  -1.4459475   0.7466746  -0.3579960  -0.1220763  -0.0169265   0.0344861
  -0.1666220  -0.5428175   0.9012001  -0.4964069  -0.8086957   1.2728531
   0.3200662   0.1346428   0.1611560   0.3693189  -0.1146119   1.0636400
   0.7334469  -0.5489665   1.1077878   0.3478943  -0.2842044   0.1789734
   0.8779179   0.7194478  -0.0295995  -0.0339811   0.0595494   1.0063356
   0.0477505  -0.0567290  -0.1762312  -0.0317512  -0.1235552   0.0949461
  -0.6075258  -0.3973470   0.1761851  -0.3121607   0.1058751   0.1722691
  -0.8282181   0.4934934   0.4004170  -0.6808177  -0.5423939   0.0426976
  -0.3684277   0.0289285   0.0536890   0.1496643  -0.0210904   0.0882253
  -0.5243779   0.5815245   0.2663400  -0.2792037  -0.2036179  -0.3187211
   0.7581365  -0.3422376   0.1998247  -0.5704875   0.4220836   0.9416741
  -0.2333965   0.1471050   0.0710355   0.1777241  -0.3717721  -0.3556638
  -0.6830225   0.5494481  -0.2302030  -0.1087658  -0.0136430  -0.1671778
  -0.2586344   0.0930279   0.2613945   0.3990449  -0.3719117  -0.0818906
   0.1832626  -0.1699870  -0.0026918   0.2410550   0.3663277  -0.1316014
   0.1046174  -0.1692533   0.6194483   0.1422782  -0.0239992  -0.1851503
  -0.0366944  -0.5108826   0.1441595  -0.0014455  -0.1827473  -0.6965766
   0.0054588  -0.1476950  -0.2394697   0.8377563  -0.6104691   0.5848291
  -0.0441496  -0.3030052   0.4372430  -0.0205094  -0.3733956   0.0358380
   0.5672764   0.2955139  -0.9293903   1.5360652   1.2113209   0.0182015
  -0.0825997  -0.1293636  -0.0064926  -0.6207327  -0.2309138  -0.6776638
   0.1022883   0.8747597   0.7743412   0.0242200   0.0465982  -0.1314742
  -0.6117863   0.5908727  -0.4304173   0.0849134  -0.1805353   0.1727866
  -0.3091319   0.2691094   0.1017253  -0.7822905   0.8717794   0.5209685
   0.3239986  -0.6368849   0.2224358  -0.0603455   0.1108901   0.0922357
  -0.2039870  -0.0168982   0.2925057  -0.4173281  -0.4041910   0.7702071
  -0.0064633  -0.2207066   0.3470025   0.0831859  -0.0541317  -0.0385391
   0.2904075  -0.1825522   0.6653831  -0.1516153  -0.0687928  -0.1020075
  -1.6002549  -0.9716729  -0.1458304  -0.3676155   0.5411110   0.1084614
   0.0043806  -0.2306179   0.1803480   0.0616157  -0.5255799   0.2355405
   0.1106414  -0.1049471   0.4691028   0.2828999  -0.0935361  -0.2047333
   0.0248073  -0.3814522   0.1688832  -0.3153619  -0.4417235   0.6053773
   0.0402428  -0.1745941  -0.1027099  -0.5770731  -0.4131745   0.2864699
   0.6207366  -0.0843483   0.5868933  -0.1866325  -0.1353186   0.0867636
   0.3948025  -0.0211294  -0.2588822  -0.1635568  -0.5382971   0.3423405
  -0.2714123   0.0464814   0.0955887   0.3503034   0.1873568  -0.6464698
   0.2792354   0.5732683   0.0433916   0.2210791  -0.0253933  -0.2317300
   0.1569002  -0.2841106   0.0650497   0.3552955   0.3804043  -0.8821100
  -0.0375070   0.1518536   0.1167432   0.3193425   0.1686492  -0.1593570
   0.1960442   1.1995325   0.7642454   0.1581816  -0.0218510   0.2783102
  -0.2592063   0.2948335  -0.5730625  -0.4815422  -0.8926881   0.6164086
   0.1484330  -0.0365409   0.0836270  -0.0064455   0.3505102  -0.1697839
  -0.1742983   0.6941457   0.2704623   0.0066109  -0.1212591  -0.1937733
   0.5390333   0.3657857  -0.4638200   0.1739673  -0.2639904   0.5532776
  -0.2293889  -0.3922035   0.0889415   0.1447972   0.3644130  -0.1343766
   0.2771054  -0.3623060   0.6562538   0.0100653  -0.0518838   0.2175455
   1.7349886  -0.9058455   0.7656629  -0.0218148   0.0881812   0.1905015
  -0.4397868   0.0822933   0.2326285  -0.2718377   0.0796494   0.4488966
  -0.3809286   0.0331193  -0.1119820  -0.1621474   0.0114114  -0.2511551
   0.3867623   0.2963224  -2.0753508  -0.2776929  -0.2297472   0.3236478
  -0.2005075   0.0962109   0.1045947   0.5426906  -0.6113725  -0.3221125
   1.3967282  -1.1842926  -0.6403450   0.2013884   0.0134041  -0.1770416
   0.4084986  -0.1524302   0.1370794   0.5745658  -0.8805561   0.6758117
  -0.3097278  -0.1622762  -0.1405115  -0.1639506  -0.1153409  -0.1155600
  -0.3931486   0.4992929  -0.2774796   0.1192754   0.0367982  -0.1953897
  -0.4465880  -0.4446869   0.0801267   0.5168253   0.1495705   0.1330090
   0.0765963   0.1410690  -0.2457217   0.5539648   0.8120128   0.0479638
   0.0944267   0.7291657   0.0791088  -0.2418493   0.1259867  -0.1433618
  -0.9670947   0.3564394  -0.4324048   0.7556237  -0.2840222   0.0978261
  -0.0599908   0.0184829  -0.1054824   0.6165368   0.4600933   0.4258567
   0.5672055   0.0306485  -0.8177308   0.1723260   0.1512299  -0.0448388
   0.6093510   0.7607991  -0.7302500   0.2633444  -0.0818821   0.3802252
  -0.2251861   0.0002490  -0.0762137  -0.7720766  -0.0536730  -0.6304614
  -0.8177227  -0.8786908  -0.6983806  -0.0937552  -0.2303925   0.2129392
  -0.7303156   0.9756865   0.5538144  -0.4841499  -0.3632373   1.7247402
   0.4624253   0.1841968  -0.0740787   0.5978996   0.0921706   0.4276443
   0.2149623   1.2013101   0.9022735  -0.1190272   0.0869771   0.1324812
   0.7195826  -1.1910987  -0.1598368  -0.5520070  -0.2786552  -0.3143700
  -0.0018729  -0.1336663   0.2312844   0.1540835  -0.0968271  -0.0678276
  -0.1262863  -0.4187303  -0.1108188  -0.1927651  -0.2487981  -0.2102924
   0.2155499   0.0420369  -0.2973098   0.2752646  -0.2343143  -0.1227149
   0.1767883   0.1128226  -0.1454108  -0.3050571  -0.2339743   0.5326707
   0.3083590  -0.7654988  -0.0919562   0.1330501   0.0570592  -0.0238468
  -0.5865463   0.4452885  -0.7225062   0.1266490  -1.5998706  -0.3652355
   0.3939672   0.0358652  -0.1980241   0.5513379  -0.1344072   0.6361795
  -0.8281942   0.0539077   0.1016511  -0.1903457  -0.2718233  -0.2513531
  -0.2826669  -0.8041242  -0.5946827  -0.0836924  -0.8111977   0.4243589
  -0.1634206  -0.3347664   0.0202166   0.0941217  -0.0686623   0.3863847
  -0.8851461   0.7460488   0.2955667  -0.1341476  -0.2182523   0.1796234
  -0.0366234  -0.1512660  -0.0737951  -0.3085740   0.3339022   0.6072214
  -0.1002736  -0.0817351   0.1571134  -0.8841251  -0.8631425   0.4327721
  -0.9280559   0.6876564   0.5618633   0.0788450   0.1961029   0.0783675
   0.1891059   0.1835422  -0.1649982   0.2388928  -0.2676414   0.2127555
   0.0632618   0.0975982  -0.1579140  -0.4029080   0.0657919   0.2931831
   0.8503455   0.3899160  -0.7700480   0.1065283  -0.0602978   0.0125543
  -2.4539938   0.8137406   1.1871782   1.0117843   1.5298597  -0.0501844
   0.0012889   0.1087112  -0.5414188  -1.3361986   0.7624491  -0.0106652
  -0.3452514   0.2302989  -0.5880398   0.2185487   0.2710116   0.2086105
  -0.4451840   0.2657472   0.4698638  -0.3737770   0.1042672  -0.4028397
  -0.0063811  -0.1661972  -0.0235750  -0.2857494  -0.1402199   0.7977745
   0.5905629   0.0294427  -0.0042930   0.1261884  -0.2215872  -0.0656079
   0.3604434  -0.1173367  -0.1646466   0.1231086  -0.0603097   0.1493091
   0.1406217  -0.0355180  -0.1132853  -0.4294907  -1.2556009   0.9035125
   0.9956062  -0.0899892   1.7213326  -0.0286916  -0.1516781  -0.1784116
  -0.0637648  -0.5451850  -0.0366353   0.1197928   0.0480282   0.0792918
   0.2804598  -0.0913414   0.2384741   0.4135794  -0.1180771  -0.8206246
  -0.8842394   0.9895376  -0.0620688  -0.1419120  -0.1124120   0.0217578
   0.1506335  -0.3771163   0.1320058   0.6432567  -0.7434991   0.4168168
  -0.0332801   0.0266349  -0.1316376   0.7538949  -1.6111191  -0.7310590
  -0.9507046  -0.2740470  -0.3761094  -0.0399725   0.0022068   0.1589945
  -0.0314932  -0.6161428   0.3368597  -0.1738127   0.6690906  -0.7761108
   0.2207001   0.0434857  -0.1484950   0.0818938   0.4089482   0.2113453
   0.3793115   0.1739158  -0.5104152   0.3114584  -0.0162545  -0.3935892
  -0.2489717   0.2504235  -0.3632250  -0.2435506  -0.0406791  -1.0528264
   0.1439326  -0.0691797  -0.0207199   1.1080872  -0.1331971  -0.0986167
  -0.4078498   0.0037952   0.0319899   0.1022761   0.1842934   0.0184267
   0.0070042  -0.3850900   0.4757280  -0.6339944   0.2793701   0.0368248
   0.0569869  -0.0552817  -0.0047575  -0.2530177  -0.4506436  -1.5679461
   0.1135056  -0.8507361  -1.2123897   0.1969567  -0.1005773   0.0411237
   0.1625066  -0.1136475   0.3216503   0.4675441   0.1167114   0.1216872
  -0.0790563  -0.0507599  -0.2972512   0.1948838  -0.1815659   0.0543472
  -0.4755818  -0.8106514   0.8009646   0.2064096  -0.2653725   0.1635214
   0.4032633  -0.2154519   0.3028549   0.4907437   0.3577770  -0.1907933
  -0.0307541  -0.1499948   0.2681634   0.5032245   0.5269767   1.1565404
   0.6665132  -0.0321384  -0.0523986   0.2070102  -0.3000722  -0.1511573
  -1.5077500  -1.1104164  -1.2522484   0.3578142  -0.4948948  -0.3204071
  -0.1568573  -0.0182261   0.0733205  -0.0639365  -1.0216665   0.3687686
  -0.3796601   0.4057672   0.3119700   0.1124851  -0.3299245  -0.0254489
   0.3164141  -0.4855462  -0.2384611   0.4193598  -0.1648852   0.0967771
   0.0695646   0.1116568   0.0153754  -0.0804025   0.8932640   0.1175143
   0.1338871  -0.6469511  -0.0943636  -0.0391118  -0.0539554   0.0094748
  -0.7171312   0.4558432   0.4427584   0.1977733  -0.6144826   0.6389097
  -0.0758961   0.3563048   0.1057286  -0.6553706  -0.0153929   0.1973830
   0.9468245   0.3229640   0.4679857  -0.0830441  -0.0706924  -0.1753193
  -0.2682264  -0.2371911  -0.1756698  -1.3246380  -0.3349011  -0.9479528
   0.0736879  -0.2456373  -0.0699871  -0.7156194  -1.2882624  -0.6970461
  -0.3361865  -0.5215722   0.2856122   0.0317590  -0.1824948  -0.0920529
  -0.1872895  -0.0711586   0.2966999  -1.0580453   0.0326318   0.3153992
   0.3320821  -0.0358852  -0.1412338   0.3670199   0.0388624  -0.8171810
  -0.4291076  -0.1798204  -0.2123378   0.1237760   0.1314757   0.1022860
   1.1208719   0.6435253   0.9570943   0.9483231  -0.6529941   0.8146795
  -0.0356723  -0.4643952   0.0015266   0.3994149  -0.5063342  -1.2733899
   0.6953986  -0.3856798   0.6771528  -0.0690922  -0.0419357  -0.1402942
   0.3680007   0.5791577   0.5106612   0.4783828   0.6275496   0.5843543
   0.3170656   0.0877934   0.1701352  -0.0238141  -0.2043835   0.1590395
   0.1925542  -0.1545619  -0.2847049  -0.0642785  -0.2408446  -0.0557860
  -0.2639367  -0.6794107  -0.0423898  -0.0138296  -0.3647009  -0.4031822
  -0.1776273  -0.1654575  -0.1173225   0.3915391  -0.2357003   0.1394997
   0.6602326   1.1910135  -0.7069121   0.1038288  -0.1601886   0.1501768
   1.1660429   0.0711911  -1.0815692   0.4821790  -0.9109440   0.3599355
  -0.2114070   0.0286282  -0.0126149   1.5452017  -0.9648213  -0.9386247
  -1.3068447   0.1455093   0.4341461  -0.2325074  -0.1087732  -0.0706000
   0.0262922  -0.4965124   0.2832129  -0.5360584   0.0497629  -0.6030814
  -0.0396974   0.2117545   0.4232443  -0.2831123   0.0454493   0.2598880
   1.0864942   1.5703564   0.0936026  -0.0051236  -0.1677821  -0.1080900
  -0.4353710  -0.2005664  -0.1863967   0.1524277  -0.3928290  -0.5630154
   0.0078613   0.1500658   0.0422403  -0.3755326  -0.2015552   0.0344828
  -0.4321191   0.1244340  -0.2897154   0.0888325   0.5998317   0.1233626
  -1.2736568  -0.3552953   0.2409501  -1.0030067  -0.1396237   0.4169244
  -0.2059745  -0.3990794  -0.1068750  -0.2803822   0.4078247   0.0264863
  -0.0691413  -0.9910757  -0.2052535  -0.1979571   0.3638674   0.0606232
  -2.0092399  -0.9658567   1.6147527   0.8432140  -0.7368234   0.4420567
  -0.1848192  -0.2073674  -0.2875397  -0.0021109  -0.9822965   0.5025574
  -0.4138689  -0.8387208  -1.2666643   0.1348715   0.1452625  -0.2129323
  -1.1870720   0.6590980  -0.6147502   0.5767904  -0.4745892   0.2800914
   0.2469823   0.1053530   0.0520828  -0.4325882  -0.0022750   0.2376919
  -0.8431672  -0.2603132  -0.0120624   0.1505211  -0.0927666  -0.0429385
   0.0275464  -0.2539968   0.0984510   0.2419937  -0.3972995  -0.6685619
  -0.0455412   0.0600923   0.3930229   0.1927000  -0.2672351   0.6640932
  -0.4343417   0.5556003   0.1520217   0.0772410  -0.2005375  -0.0504445
   0.3223789   0.1030725  -0.9355051  -0.0157561  -0.5808713   0.0874668
   0.0173241   0.0129889   0.2051191  -0.8278362   0.5304763   0.0305021
  -1.0893252   0.8697514   0.0268508   0.0178370   0.2128024  -0.1244544
  -0.0000842   0.7915103   0.1302802  -0.7942591   2.7702235   0.2921159
   0.0079342   0.3611739   0.1113343   0.4127133   0.4268651   0.1887566
   0.4768244   0.5672032   0.0732594   0.0519237  -0.0768917  -0.0270288
  -0.0406021   0.3486402   0.4529161  -0.3460173   1.3482688   0.0366308
  -0.0038679  -0.1753303  -0.1304489   0.5820254  -0.0531305   0.0319883
   0.0347707  -0.3213422  -0.6792064  -0.0331551  -0.2240330  -0.1250696
  -1.2350868  -0.3087197   0.2549813  -0.5096051  -0.2747083  -0.3288303
   0.1208032  -0.0828986  -0.0832449   0.3327145  -1.0744983   0.4033893
   0.1876857   0.5563284  -0.0533999   0.0066903   0.1510941   0.0076099
   0.1119129   0.5871644  -0.1399588   0.8552563   0.6172300  -0.4995394
   0.0232538  -0.2284504   0.0467680   0.2009390  -0.1876574   0.1392998
   0.2672816   0.2782833   0.0817638  -0.0635113  -0.2025265   0.1602177
  -0.2037923  -0.8174882   1.0289189  -0.3366859   0.2380368  -0.1500927
   0.2817264   0.0799543   0.1904857   0.8696267  -0.1978716   0.1694612
   0.1151188   0.2079819   0.5972623   0.0000884  -0.1085690  -0.0537223
  -0.9338373   0.5195662   0.1404580  -0.9337126   1.7315383   0.3213016
  -0.1809821  -0.0042566  -0.2943186   1.0929335   0.3315410  -0.2241990
  -0.5670405  -1.4490995  -0.7185555  -0.0826765   0.1739722  -0.0055698
   0.8741777  -0.5038765   0.1237008  -0.3528368   0.6038598   0.8619715
  -0.1868806  -0.4469957   0.1122025   0.3202245  -0.2279159   0.3970945
   0.5851107  -0.0598776   0.5217524   0.3182771   0.1496017   0.0270061
  -0.0495214  -0.3931437   0.1732316  -1.1941984   0.6680283   0.8713610
   0.0438486   0.0505422  -0.0067004  -0.1323812  -0.2008938  -0.4641537
  -0.4268489   0.2244308   0.2449313   0.3374808  -0.2195144   0.0999887
   0.3591268  -0.3207068  -0.4919135  -0.2123103  -0.4242176   0.1779804
  -0.0588316  -0.0069514   0.2470038  -1.4394962  -0.2693549  -0.1222343
   0.6801639  -1.1401424  -0.1577438  -0.0091683  -0.2747880   0.1947925
   0.3016339  -0.7241839   0.1570480   0.2374992  -0.0442666   0.1324098
  -0.1610071  -0.2070256   0.0403292   0.3752442   0.6896532  -0.8149358
   0.1652186   0.2835601  -0.4655626  -0.1236917   0.1724893   0.1422905
  -0.2613683  -0.4556255  -0.6143228  -0.1652397   0.8226789  -0.6272604
  -0.0189561   0.1733297   0.0294319  -0.2336365   0.6619674  -0.0536965
  -0.6515446  -0.0464888  -0.1712470  -0.0900459   0.0031193   0.2961282
  -0.6367356   0.7067574   0.2681568   0.3049708  -0.0840312  -0.1820594
  -0.1043093   0.0812546   0.3465851   0.4558035   0.7731757  -0.7970216
   0.1943724  -0.3149624   0.7515730   0.2276850  -0.0568452  -0.0698005
   0.0137030  -0.0821308   0.0460949  -0.3217548   0.3230424   0.0922509
   0.1357013   0.3987409   0.0462736  -0.5181406   0.8745878  -1.1455353
  -0.1549687   0.3152983  -0.8239486  -0.0362350  -0.0015962   0.4092943
  -0.2906209  -0.5086197   1.3094049  -0.0996402   1.0039864   0.0546064
   0.4291533   0.0825125  -0.3543657  -0.5312291   0.0864213   0.1963108
   0.1078516  -0.2393652  -1.0384943  -0.2625749  -0.1074740  -0.0722314
  -0.5223723   0.4941373  -0.3854709  -0.4866443   0.0539766   0.0039491
   0.1767359   0.1087367   0.2672254   1.2762082  -0.1155903   0.6206410
   0.3560871   0.1716565   0.7589328  -0.3401413   0.2236368  -0.0932655
  -0.5058679   0.2090927  -0.0518629  -0.4137278   0.3400400  -0.1235342
  -0.0103244   0.0489438   0.2347679  -0.0685220  -0.0607594  -0.0046386
  -0.1855286  -0.0531166  -0.4136978   0.4899649  -0.0233483  -0.1952819
   0.8136869  -0.0242464  -0.1183028  -0.1680261   0.5112075  -0.2357312
   0.3374841  -0.0574656   0.1928312  -0.4310149   0.1887611   0.4614193
   0.7772316  -0.0204677   1.2737344   0.0803034   0.0251611  -0.2157196
  -0.0637511  -0.8400360  -0.1424321  -0.3578403   0.3890878   0.4515136
  -0.0240501  -0.0446492   0.0763277  -0.7100508   0.3348195  -1.6931132
   0.1315857   0.0490896   0.0276869   0.0716759   0.3727001   0.0389858
   0.1015496   0.8182195  -0.6853017  -0.4039150   0.6144393   0.4617934
   0.3963605   0.0590583   0.2957930   0.9440874   0.5545173   0.2532884
  -0.5352503  -1.1569973   0.7989670  -0.2323228   0.6380103  -0.1969552
  -0.1695654   0.4972944  -0.2889993  -0.2709840   0.6057097   0.0736427
   0.0731735  -0.1070161  -0.0866732   0.4138599  -0.4352311  -0.5762786
  -0.0712377   0.4539805  -0.7904370  -0.1422608   0.1075077  -0.0482518
  -0.5449044  -0.2794367   0.5444287  -0.5746899  -0.2862012   0.4771830
  -0.0399278   0.0601907   0.1133901   0.0254454  -0.3958763   0.1912495
  -0.3500601  -0.0634374  -1.0561040   0.0063891  -0.4560668  -0.0242088
  -0.2099079  -0.2525799  -0.2304399  -0.2008797  -0.5151728   0.3102862
   0.1747765  -0.0236100   0.0285501   0.6534378  -0.3018432  -1.2048239
  -0.2447582   0.4347119   1.0808931   0.2230586   0.1872167   0.0818190
   0.4983110   0.1074044  -0.6241609   0.2962515  -0.0455726  -0.2284836
  -0.3831847  -0.0410676  -0.1635285  -0.7676024  -0.1218093   0.3511646
  -0.7673776   0.3191523  -0.6065368  -0.3351547   0.2633085   0.1986482
  -0.1294557   0.0135900  -0.0353348  -0.6227503   0.4105161   0.3007693
   0.1892853  -0.2919879  -0.0207811  -1.0362766  -0.2518479   0.2510220
  -0.5618031   0.3126304  -1.5988309   0.1036812  -0.0426386   0.1694388
  -0.2673005  -0.1336691   0.3488681   0.3258884   0.2612945   0.3893715
   0.1357186  -0.0227431   0.0725311  -0.2367944   0.1779001   0.2215460
   0.3745723  -0.4759178   0.2137088  -0.0878011  -0.1652809  -0.1331338
  -0.1824464   0.4081542  -0.3875118  -0.8838138  -0.5503461   0.3309515
  -0.0344344   0.2526593  -0.2852223   1.1163139   0.4613800   0.5938280
   0.1882002  -0.6540573   0.1707124   0.1271078  -0.0251970  -0.3076800
  -0.2764660   0.0294354  -0.4875717   0.1012906   0.1390680  -0.0200484
  -0.4524120   0.2653473  -0.0393037  -0.9516415   0.5332331   0.2872792
  -0.5547921   0.9485462  -0.3618407  -0.0560702  -0.0197564   0.1597066
  -1.0929588   0.5153218   0.8256939  -0.2689340   1.1815439  -0.6384981
   0.2468858  -0.1047446  -0.0227937   0.2279128  -0.1575996  -0.1097203
   0.2454123  -0.0578945   0.0528563   0.0915712   0.0085020   0.2266716
   0.6069731   0.0524032  -0.6343691  -0.6652479   0.3267019   0.0473482
  -0.0368589  -0.1266224  -0.1206189   0.6816338  -0.9052300  -0.6531040
   0.0557278  -1.1056492   0.1400060  -0.1290204   0.0278676   0.0356121
   0.3817118   0.2627490   0.3936548  -0.2838823   0.7714833  -0.0941927
   0.1337501   0.2889989  -0.0736943  -0.2836197  -0.2314420  -0.0073490
  -0.3799229   1.1888198  -0.4020499  -0.0291352  -0.0135601  -0.2216107
  -0.3579070  -0.2370328   0.3720472   0.2576874   0.1343574   0.2842603
  -0.0537673   0.0936803  -0.3115673  -1.4517151  -0.7044541  -1.9038022
   1.3284714   0.4737550  -0.9627487   0.1313049   0.3042344   0.2301617
  -0.0292170   0.0029990   0.2275918  -0.2306606  -0.4101976  -0.1935704
   0.2413677   0.1673466  -0.2897179   0.5906499   0.8123780   0.2881128
  -0.0443226  -0.1507088  -0.6178060  -0.1382757  -0.2064881  -0.1044658
  -0.0927631   0.9657601   0.2278160   0.9414467  -0.8105023  -0.6529116
  -0.3033988  -0.1444671  -0.1946397   0.0153754  -0.1812733  -0.0799112
  -0.4629863  -0.0970877  -0.2482363   0.0194503   0.1426365  -0.1211456
   0.4148728   0.1785924  -0.1926242  -0.1654613   0.3792852  -0.1948155
  -0.0660104   0.3257709   0.0860418   0.3703971   0.2275746   0.4742272
  -0.2209248  -0.0057037   0.7887765  -0.4793635   0.2159446   0.3750476
  -0.2007577  -0.0528966  -0.0255561  -0.0065124   0.2166865  -0.1297467
  -0.0050144  -0.1960830  -0.0890826   0.0353145  -0.1105803  -0.4142516
  -0.1016168  -0.4044205   0.3155647   0.0408429   0.1390495   0.0467998
   0.3269842  -0.9953183  -0.0468995   0.4741328  -0.0013468   0.1600614
   0.2304106   0.0482071  -0.1134977   0.3885918   0.8120688  -0.4990691
   0.5719619  -0.1086664   1.4385748   0.0125745  -0.0430780  -0.2605137
  -0.6890714  -0.5786875   0.0506836  -0.8135520   0.2563220  -0.5289448
   0.1618149   0.0654941  -0.3354343  -0.4422685  -0.0340077   0.0524700
   0.5903868  -0.9062595   0.2685020  -0.0433551  -0.1285501   0.0311113
  -1.0164199   0.7076687   0.2883514  -0.0255458   0.4400697   0.4784426
   0.1229237  -0.5199084   0.0834885  -1.0563822  -0.0551915  -0.6085937
  -0.0081183  -0.2261384  -1.0564342   0.1492355   0.2682066   0.2200765
  -0.1766311  -0.1789962   0.8357430   0.6450246  -0.7416658   0.1697842
  -0.4096616   0.1245491   0.0599666  -0.3495735  -0.5555346  -0.0915755
   0.6192804  -0.5386422  -0.1226198   0.1766008  -0.3049008   0.2568342
   0.4894447  -0.0063488   0.2914638   0.1788689  -0.0304146  -0.0684438
  -0.2257999   0.1642920  -0.1419316  -0.1887804   0.1666594  -0.1557536
  -0.4094804   0.0592167  -0.3255148   0.2608110  -0.1947457  -0.0353266
   1.1134396  -0.9452951   0.8975256   0.7828998   0.0603099  -0.3521872
   0.0879583   0.2088768   0.2177958   0.9504548  -0.4018559   0.0115587
   1.3540642   0.0938575  -2.1778879   0.2479347   0.0412567   0.1504728
   0.2033341   0.1231218   0.0924093  -0.3390362   0.8072119  -0.1748859
   0.3261599  -0.1089637   0.3029364  -0.1261157   0.6510547   0.3910381
   0.4127772   0.1267181  -0.0305731   0.0372127   0.0116256  -0.1575805
   1.4915014   0.3710998  -0.2406704   0.2042213   0.1909573  -0.0764923
  -0.0802092   0.2040713   0.4095260   0.0221288  -0.2823416  -0.3169112
  -0.3694067  -0.2237926  -0.4915910   0.3262699  -0.6372561   0.4945169
  -0.6152852  -0.6980795   0.1272419   0.9833600  -0.1872550  -0.2486172
  -0.0013712   0.3570704   0.2278182  -0.3762947  -0.1920362  -0.0925993
   1.1259538  -0.1123224   0.6460776  -0.0312656   0.0955841  -0.0505120
  -0.6918656   0.7423323  -0.4186084  -0.4478277  -1.0049477  -1.0866190
   0.2016695   0.0913356  -0.1805599  -0.1872179   1.0374496  -0.6369578
  -0.1098387  -0.1544549  -0.3008530   0.1309480   0.1333507  -0.2430780
  -0.0957416   0.5007682  -0.1394079  -0.3684017   1.0650182  -0.0003212
   0.1883534  -0.0561555  -0.2812788   1.2051665   1.3218248   0.4099527
  -1.0360165  -0.7351615  -0.7586657   0.1439109  -0.1569898  -0.0246273
   0.3843520  -0.1612102   0.5915612  -1.1421968   0.5442075  -0.5152070
   0.0856025  -0.1422282   0.2147697   0.7280212  -0.6219174   0.6614175
   0.9833875  -0.8358472   0.7465746  -0.0245397  -0.3357546   0.2474460
  -0.4825330  -0.3637914   0.8235469  -0.0985182  -0.9875098   0.4434383
  -0.0448795  -0.2018004   0.0946143   0.7059466  -0.4087302   0.2158515
  -0.2894371  -0.2754940  -0.1538923  -0.2085196  -0.1244865   0.1444290
  -0.3579618   0.3192108  -0.2927296   0.5961393   1.0261893   0.2007776
  -0.0955020   0.1509487   0.1708032  -0.1980711  -0.4761662   1.4669130
  -0.2387243  -0.7790620  -0.0158836   0.0701926  -0.3858369   0.1306973
   0.5261292   0.5405400  -0.1477345  -0.2704720  -1.0069019  -0.3207556
   0.0480196   0.0261951  -0.4375901  -0.0801525  -1.1059723   1.0800484
  -0.0949580  -1.2051257   1.2124126   0.0743698   0.0137809  -0.0224884
   0.1826507  -0.0539725   1.1032811   0.1151938  -0.1097036  -0.1211071
   0.0448760   0.1373362  -0.0790293   0.3419094   0.9085544   0.0165491
   0.3498871   0.0167188   0.2767721   0.0508448   0.0876829  -0.2388984
  -0.0422391  -0.2899684  -0.5123985   0.7725610  -0.3814099  -0.0565152
   0.1348432   0.1637660   0.2352254   0.0121828   0.4450766   0.2263792
  -0.3113877   1.0909373   0.0168109   0.2818483   0.2143814   0.1304018
   0.2357638   0.1856786  -0.2055519   0.2998743   0.1883581  -0.0324889
   0.2236645  -0.1483328   0.0618798   0.4966813   0.3618118   0.0789271
  -0.4211156  -0.0661567   0.1722663  -0.1743584  -0.0007075  -0.0629607
   0.1894434  -0.3634901  -0.6928509   0.0482663  -0.0564474  -0.5207258
   0.2898130   0.1646366  -0.1185039   0.3136751   0.1912521  -0.4195094
   0.2831015   0.1310825  -0.0519796  -0.1495681  -0.0748437  -0.2163135
   1.1337622   1.1536871   0.9179167   0.7292564   0.4824437   0.7384837
   0.0041198  -0.2254191   0.0815774   0.1599249  -0.4013724  -0.2897331
   0.1753612   0.0620716   0.5957245   0.2340481  -0.0939214  -0.1473668
   0.7622348  -0.9160310   0.0368805  -0.2401915  -0.2457439  -1.1555811
   0.2955096  -0.1013729  -0.0984979   0.2873689   1.5242501  -0.8232151
  -0.1739412   0.0993724   1.3031348   0.3679937   0.0012526  -0.0606906
   0.7843379   0.5836761   0.4251800   0.1528515  -0.9086823   0.4723969
  -0.1800879   0.0293564   0.0400009  -0.0367927  -0.2421856   0.3811430
  -0.6513470  -0.1610869  -0.0367728   0.0911676   0.2001156   0.0600781
   0.0881893   0.1801389   0.5193863  -0.0710012   0.3910162  -0.4176421
   0.3461323   0.0345923  -0.0397996   0.7054458   0.0240297  -0.3780287
   0.1777090  -0.1449535   0.3532046   0.0535675  -0.2336015  -0.0129434
   0.2264562  -0.1747732   0.0407053  -0.3901338  -0.8716617   0.1351165
  -0.0287388   0.2953477   0.0331974  -0.4314587  -0.0957466   0.2673536
  -0.2287280  -0.0623644   0.3560499  -0.0809780  -0.0635645  -0.0888921
  -0.1290062  -0.0696198   0.2338520  -0.7314000  -0.6140286   0.4304750
  -0.2961359  -0.1616175   0.2154526  -0.2130301  -0.2039111   0.2109890
   0.0787899  -0.3292996   0.0832968   0.2412799   0.0864821  -0.1318930
   0.2668796   1.2034897  -0.5076329   1.0039313  -0.1030729  -0.3190204
   0.0477372   0.1629263   0.1361238  -0.4783794  -0.5387305   0.4558362
  -0.5763010  -0.5825370   0.4388037   0.2578575  -0.1146265   0.0406660
   0.3320404   0.0134055  -0.3586656   0.5172042  -0.5710048  -1.1630731
   0.0631339  -0.0292555  -0.0951559  -0.8157242  -0.1798525   0.8896276
  -1.6309939  -0.4167227  -0.2875033   0.4747089  -0.0014549  -0.3718231
   0.2340610   0.1050502  -0.1109590  -0.0746090   0.5615613  -0.3342658
  -0.0643627   0.1970108  -0.2355084   0.1941053   0.1543174  -0.0944712
  -0.9577511  -0.5240809  -0.1502138   0.0714109  -0.0310519  -0.0094538
   0.3952351  -0.5957259  -1.1497372   0.1334385  -0.6123744   0.2824933
  -0.0127290   0.0996690   0.1467709  -0.1834006   0.4336105   0.0710517
  -1.1248428  -0.3632942   0.2745382  -0.2169733   0.1671506  -0.4383703
  -0.0366876   0.9593717  -0.1482985  -0.6246756   0.7566272  -0.5953376
  -0.1845212  -0.0864144  -0.0550055  -0.1655760  -0.1549210  -0.0134381
   0.0922973  -0.0959113   0.3712292  -0.2167848  -0.1724866   0.1034083
   0.1272885   0.0745490  -0.1083512  -0.1137631   0.6344384  -1.6605867
  -0.1005985  -0.1385093   0.1275197  -0.1145345  -0.2017048   0.3985696
  -0.1572622  -0.3388061   0.2991670   0.2932712   0.0719200   0.1669126
   0.0645854  -0.0238854  -0.4612291   0.5841698  -0.1129905   0.3923710
  -0.0199956  -0.0223746   0.0147444  -0.6223291   0.1454705  -0.2797573
   0.6248891  -0.1671841   0.3865958   0.1200944  -0.0579888  -0.0574537
  -1.0266575   0.0591296  -0.1841365  -0.1266952  -0.5323415  -0.3490294
  -0.1184364   0.2316661  -0.0826386  -0.0798357  -0.1629678   0.2459574
   0.9077075   1.0451147   0.9735855   0.1098704   0.0848904  -0.0903225
  -0.6276455   1.5323047   0.4244397   1.6216720   0.2360747  -0.0483167
   0.2417633   0.3115706  -0.0161254  -0.0766392   0.1845101  -0.1987112
   0.2207929   0.7535335   0.0453523  -0.1089197   0.1387687   0.2267033
   0.0314972   0.0992915   0.4000287  -0.4675024   0.0772822   0.1868846
  -0.3671448  -0.0289321  -0.0165346  -0.0616226   0.5597486   0.2811435
   0.0715088  -0.3899678  -0.2903904   0.0575012  -0.1207397  -0.0517822
  -0.2737914  -1.0548260  -0.0291911  -0.7842053   0.5074872   0.5472863
   0.2984696  -0.3353541   0.0776181  -0.4304319  -0.1693553   0.2033121
   0.0793240  -0.8064333  -0.5186742   0.2511169  -0.2362286  -0.0463153
   0.2873876  -0.1976052  -0.1422630   0.2968674  -0.1462080  -0.3126944
  -0.0629155   0.1732296   0.1586072   0.9760982  -0.1260079   0.4955873
  -0.4352188  -0.6510185  -0.2069031  -0.0905099   0.2743086  -0.0073460
   0.3859218  -0.7253062   0.2955174  -0.7561873   0.4043827   0.9504195
  -0.4102042   0.0083461   0.2743191  -0.3562321   0.4063940   0.2149322
  -0.4528883  -0.1608868  -0.2208993   0.1280355  -0.2091268  -0.2161682
  -0.3859527   0.1057841  -1.0441473  -0.1613267  -1.1863574   0.1180428
   0.0489570  -0.1996564   0.2281864   0.3706001  -0.5911657  -0.2368794
  -0.9110627   0.4031042   0.9887403   0.2809788   0.2208215   0.0508944
  -0.3586925   0.5178514  -0.8681007   0.2540486  -0.7962309   0.5779984
  -0.0047477  -0.0626447  -0.4819207  -0.4416340  -0.3164349  -0.0484675
   0.3198758   0.1822464  -0.2947530  -0.0997554  -0.0709426   0.0327167
  -1.9484989   0.5275202  -0.6106418  -0.2075795  -0.4171953  -0.6897302
   0.0362812   0.0575176  -0.2102360   0.6344726   0.0125523  -0.2607238
   0.4658069  -0.0314931   0.1676381   0.1709354  -0.0970910   0.1010627
  -0.5913809  -0.2610403  -0.0837232   0.2045539  -0.4182285  -0.0803878
  -0.1150658  -0.2571778  -0.1307771  -0.0133704   0.0093409  -0.0317220
   0.5075696  -0.2026552   0.0928480  -0.0381485   0.1488800   0.2535381
   0.4242964  -0.1611585   0.4517023  -0.2032632  -0.0481758   0.7064855
   0.1364525  -0.3227663   0.3519109   0.1690283   0.2499341  -0.3785661
  -0.9885256  -0.9797808  -1.2416549  -0.2340784  -0.1457307   0.4274599
  -0.7510077   0.1556262   0.4489547  -0.5127293  -0.7877550   0.3600374
  -0.3526735   0.0652942   0.0986275   0.0351688   0.8474953   0.0106284
  -0.1376821   0.3505160   0.2187687  -0.1184473   0.0259900  -0.0286274
   1.2379217  -0.1742505  -0.7396774  -1.4839759  -0.4795043  -1.5023836
  -0.1165842  -0.1108716   0.0769026  -0.1953960  -0.3272698  -0.1767971
  -0.5267098  -0.4210701  -0.3686758   0.2858924  -0.0608016  -0.1949288
   1.5267139   0.3875714  -0.9743331  -0.9582760   0.6154133  -0.2688151
   0.1336551   0.0710016  -0.1574890  -0.2096143   0.0535210  -0.3619419
   0.4863854   0.3397379  -0.3834446   0.0096124   0.2440596  -0.0279527
   0.8597910  -0.8434454   1.2730795  -1.2572303  -0.4676604   0.7726614
   0.2806397   0.2234625   0.4087363  -0.5819828  -0.1454628  -0.0938498
   0.0012696   0.5599522   1.8524031   0.1758637   0.2727198   0.1546700
   0.2167713   0.0896276  -0.0309075   0.0737269   0.9351838   0.8054645
  -0.0760093   0.0053098   0.0105799  -0.4528738   0.7834982  -0.6028514
   0.4184076  -0.0967054   0.7232297   0.2441959   0.2094374  -0.0563053
   0.2555061   0.2919979  -0.1894186  -0.2144633  -0.0845160   0.8688515
   0.0596874  -0.2229588  -0.0167603   0.2001384  -0.1795389  -0.0406487
   0.7755565  -0.1126607  -0.4634099  -0.0349539   0.0792836  -0.1329588
  -0.1004462  -0.3381212   0.2257159  -0.1540643   0.6384896  -0.3311698
  -0.0150469  -0.1053220  -0.1604935   0.4866023   0.1289665   0.2142418
   0.0402142   0.1153474  -0.7841501  -0.0948679   0.0464903   0.1617923
   0.0889343  -0.4580197   0.2595278   0.8493245   0.3257236   0.9929929
   0.4436985  -0.1137476  -0.2191155  -0.5899006  -0.6681835  -0.2646000
   0.1299047   0.0974310   0.1855228  -0.1043718   0.0760532   0.0568838
  -0.4331180  -0.3729217  -0.0290646   0.2140118  -0.5223987   0.0044817
  -0.0486221  -0.1092198  -0.0086312   0.2678782  -0.2740437  -0.0120726
   0.1338007  -0.2483492  -0.7580201  -0.1382164   0.0141560  -0.4869920
   0.5905633  -0.3179247   0.5167137  -0.1523275  -0.0384811  -0.5489568
  -0.1019704   0.0160514  -0.1851399   0.0506161  -0.3249751   0.2472545
   0.2544055  -0.5595576  -0.6295288   0.3212111   0.0434539  -0.1955698
   0.3339104   0.4370917  -0.3132579  -0.2078041   0.3098253  -0.0330063
   0.0147056   0.1815886   0.0559436  -1.1087015  -0.4107336  -0.3784733
   0.0008569   0.9318133  -0.0713667   0.1560594  -0.2920985   0.3411837
   0.3716188  -0.4766125   1.1806704   0.2451651  -0.0217878  -0.0109271
   0.1715578  -0.3052910  -0.0885292  -0.6207571  -0.4306972  -1.2237131
  -0.0951218   0.8338500   1.3974519  -0.1808451  -0.1645905  -0.0217429
  -0.1771757  -0.1779043  -0.0100336  -0.3861259   0.5132433  -0.6733369
  -0.0634444   0.0410379   0.1186921   0.3812918   0.5283516   0.1979271
   0.6655941   0.3275948  -0.1993196  -0.1743994  -0.1508445  -0.0322520
  -0.6319789   0.0143706   0.8158237   0.9784015  -0.1890470   0.4847061
  -0.1428329  -0.0410637   0.0162717   0.6408290  -0.3004455   0.1198693
   1.1638626  -0.5501938   0.1782924   0.2475551   0.1424951   0.3022978
  -0.0695172  -0.9951242  -0.0111735   0.4621998  -0.0123605  -0.4590070
  -0.1725224   0.1455578  -0.0458768  -0.8168026  -0.1701997   0.6605465
  -0.1934425   0.2166362   0.0390940  -0.1509058  -0.3368041  -0.1162066
   0.2887384  -0.8448497   0.4715321  -0.7341334  -0.1754540   0.2582128
  -0.0732076   0.1210540   0.2028904   0.7724252   0.3583429  -0.8368099
  -1.2512817   0.7116807  -1.0325691   0.1252170   0.0716712   0.0402282
   0.3096268  -0.0373842   0.0736950   0.4383165  -0.1312086   0.2055450
   0.2588325   0.2411636  -0.2065843  -0.5346997   0.9792325   0.3989082
   0.2781132   0.2621107   0.1467971  -0.0271616  -0.2964814   0.0137657
   0.1277136   0.4151785   0.0532661   0.7818661  -0.7442701  -0.4241927
   0.1552622   0.1226735   0.1937372  -0.0942954   0.0481883  -0.2587838
  -0.0097821  -0.0873690   0.2912705   0.1899445  -0.0724227  -0.1841492
   0.8131486   0.4369859  -0.3738495  -0.1463613  -0.2100581   0.0568871
  -0.1124979  -0.2802467  -0.1705278  -0.2499982  -0.5484114   0.6175293
   0.1415215  -0.2855950   0.3630710   0.1582244   0.2242687   0.1023910
   0.0188541  -0.0995765   0.1582855   0.2592887   0.8013586  -0.4981370
  -0.0279991  -0.2384320   0.0590900  -0.8136635   0.0505595   0.4368048
  -0.0148835   0.9320917  -0.5402174   0.2020788   0.0124147   0.2224187
   0.1098551   0.0640924   0.2725054  -0.8103923   0.9780530  -0.4433454
  -0.2184870   0.0614175   0.4556953   0.5436279   0.2420289   0.5289809
   0.9656219  -0.2386515  -0.2434273  -0.3633289  -0.4576601   0.1144959
   0.0473827  -1.3831394   1.0687569  -0.5078319  -0.4382667   0.0362238
  -0.0083723   0.2646010   0.1995876   0.2874901   0.0622271   0.0884570
  -0.0355038  -0.4510182   0.0867705   0.0467626  -0.2132976  -0.1396724
  -0.0365768  -0.1165912   0.5307096   0.1424140  -0.4161765   0.3988245
   0.1081726   0.3757901   0.0389276  -0.6725186  -0.2215537   0.8785176
   0.6916411  -0.6532591  -0.7499729  -0.2631993  -0.1107239  -0.2040633
   0.6384863  -0.7984836   0.0257903   0.1066254  -0.2924463   0.1866436
  -0.0016168   0.2373728  -0.3234493   0.6589449   1.0232945   0.4737192
   0.2921753   0.6037344   0.0135896  -0.2845997  -0.1048708  -0.2698648
  -0.1843580   0.5090226  -0.5889445  -0.0726599  -0.3623812  -0.5109510
   0.0268622  -0.3453439   0.0962870  -0.0544845   0.0774930   0.2833946
   0.2489004  -0.4205213   0.4232295   0.0442556   0.3267562   0.1016170
  -0.8119031  -0.3253022   0.4409597  -0.0585172  -0.4644905   0.0491782
   0.0099071   0.1486395   0.0207251   0.7529993  -0.2915334  -0.5397432
  -0.4246765   0.0844708   0.0360294  -0.3236753  -0.1894622   0.3305566
  -0.2671496   0.1233319  -0.4141078   0.2803036   1.2763573  -1.4806466
   0.0001898  -0.0300864   0.4136392   0.0725161  -1.4637910  -0.3302153
   1.5334699   0.4266207   0.8662372   0.1808389   0.2530825  -0.0831716
   0.7733884  -0.7353610  -0.6081703   0.7628468  -0.5676741  -0.5537221
   0.0871243  -0.0930808  -0.0208870   0.1126533  -0.1531725  -0.0211928
   0.3095651  -0.3156304   0.0593450   0.1893880  -0.1827851   0.0621338
   0.2230951  -0.4870376  -0.1296855  -0.1367124  -0.1477581   0.1017177
  -0.0953370  -0.1875977  -0.2264677  -0.2195901   0.3016114   0.6791956
  -0.1225487  -1.6424618   0.4293874   0.2173593  -0.3109429  -0.2722696
  -0.2495617  -0.7348405  -0.3142730   0.0188051  -0.1165107  -0.4904613
   0.0744072   0.0264812  -0.2238009   0.3778195   0.3685223  -0.1344301
   0.7460658   0.0989812  -1.4749042  -0.1967067  -0.2927731  -0.2009625
  -0.6882696  -0.4704888  -0.4798478   0.0062434   0.3098895  -0.3777150
  -0.0134547   0.1854973   0.1823311  -0.1141148   0.2196726  -0.2504655
  -0.2251705   0.2509372   0.1000449  -0.0953038   0.0696132   0.0955746
   0.4710921  -0.0655763   0.4143594  -0.3925652  -0.6432744  -0.8737705
   0.0569534   0.0635390  -0.1229030   0.4967376   0.1010106  -0.9409212
  -0.3928173   0.3308784   0.7043829  -0.0196343  -0.0051299  -0.1538301
  -0.1874500   0.4590005   0.5851560  -0.1009708  -0.8565664  -0.2201033
   0.1674358  -0.1598524  -0.1995937   0.1526960  -0.4560410  -0.5077231
   0.8359471  -1.2538125  -1.6770943   0.0668094  -0.3664915   0.1571821
  -0.0788615   0.0563173  -0.9907849   0.1015339  -0.1228165  -0.0995176
  -0.0780307   0.1773560   0.3391965  -0.8886144  -0.1846594   0.2574386
   1.2531327   0.7792638   0.4849874  -0.0277994   0.0623497  -0.1486290
   0.8082627  -0.1328766  -0.2825030   1.0804190  -0.2101778  -0.3284032
   0.0996755  -0.1400801  -0.0822160  -0.6834902  -1.2291797   0.4762869
   0.1584460  -1.7229439  -0.9704973  -0.1279977  -0.4197121   0.1034572
   1.1004148   0.4051556   0.5675586  -0.3966614  -1.0156222   0.6669531
  -0.0288078  -0.0930655   0.2243582  -0.1563765   0.7484443   0.2690428
   0.3986943  -0.1234928   0.5589615  -0.0122042   0.0029415   0.0472555
   0.4465909  -0.4166229  -0.3815156  -0.6519516   0.4743602   0.1124676
  -0.1296034   0.0996276   0.1451673  -0.3388488   1.3232268   0.3750576
  -0.1220410   1.0436419   0.0244096  -0.1540753  -0.0974400  -0.1626294
   0.1656745  -0.6526540   0.1651263  -0.0119263  -0.3342701   0.0313211
  -0.1509793  -0.1471990   0.0791288  -0.8335493  -0.2059485   0.4563041
  -0.0502219  -0.7797693  -0.1787424  -0.3086447  -0.1054626   0.1127508
  -0.6123452  -0.2070701   0.4122726  -0.1394608   0.2524244   0.2157730
  -0.0458616   0.0685611  -0.0704766  -0.7379458  -0.3063179  -0.1666824
  -0.9769303  -0.4508907   0.0144548  -0.0570443  -0.5279346   0.3445396
   1.1541601  -0.5006381  -0.3140597  -0.6733371  -0.3112952   0.5285352
   0.0532239   0.2724458  -0.1824146   0.0483232   0.4550532  -0.1673846
  -0.1659623   0.3417624  -0.9285421  -0.2431137  -0.2150625  -0.4156492
  -0.8973885  -0.8606414  -0.9029214  -0.3913647   0.5938575  -0.5090063
   0.0264436  -0.0172662  -0.0129406   0.2148645   0.7737771  -0.5752718
   0.0434277   0.3916124  -0.0255929   0.3331211   0.0523730  -0.0173244
   0.7128682   0.6544596  -1.0878891  -0.4406963  -0.7258464  -0.6148900
  -0.4554774  -0.0517463   0.4455275   0.3265558  -1.1011399  -0.0258860
  -0.1315801  -1.8761488  -0.2567029  -0.1034209  -0.0184340   0.3256581
   0.1917959  -0.2798936  -0.3339161  -0.3133878   0.9350994   0.0336363
   0.1084337  -0.0496661  -0.0054752   0.5169017  -0.4082247   0.0373049
  -0.2375401   0.4182491   0.0244140   0.0082626   0.3317514   0.3218551
  -0.2144142  -1.1332352   0.7808096  -0.5620783   0.8182845  -0.3974142
   0.3829754  -0.2948883  -0.1838816   0.7190258  -0.5572234  -0.1857548
   0.2878098  -0.2193202  -0.0467014  -0.1932564  -0.0031087  -0.2366214
  -1.8509000   0.7835663  -0.7234901   0.3175145  -0.6968078   0.7214770
  -0.0085509   0.0264495   0.1897667   0.1598662   0.6326235   0.0337497
   1.0662313   1.0545550  -0.1238098  -0.1055967  -0.1232303   0.1276224
   0.4463473   0.7126305   0.2068056  -1.0980835   0.2998817   0.2773323
   0.3403108  -0.5078940   0.1329435   0.0822403   0.2083619  -0.4131446
   0.1930664  -0.2077379   0.6810287   0.1784313  -0.1573872  -0.0034153
   0.5613026  -0.0275859   0.0967034   0.5759618  -0.5636445   0.0890315
   0.0820652   0.1600337   0.0153912   0.1684060  -0.0763155  -0.2864983
   0.7327283   0.5194776  -0.4996980   0.0689555   0.0078414  -0.3320796
   0.3348647   0.4158567  -0.2235641   0.1102550  -0.3251934  -0.3088186
  -0.0544799   0.1493836   0.0039272  -0.0114948   0.1748974  -0.0578775
  -0.1389170   0.0185514   0.1116386  -0.2413575   0.0242510  -0.0616264
  -0.7945675   0.0279709  -0.0178383  -0.1496323  -0.1116192  -0.0081570
   0.5129775   0.2144062   0.2412485   0.3705543   1.4868610   1.1028441
   0.2621951  -0.0045623   0.0333308  -0.0260027  -0.0741277   0.1858843
  -0.5163048   0.2566952   0.2251448  -0.1031107  -0.1445210   0.1542406
  -0.0268588   0.3154070  -0.0873971   0.5814986   0.2710763  -0.2740201
  -0.3434598   0.8627544  -0.3104696  -0.0420689   0.2486607  -0.0488037
  -0.0448640   0.1150527   0.0697656   0.2015214   0.3165469  -0.0960390
   0.3447379   0.0079803   0.0085431   0.8586191   0.9818744   0.9325909
  -0.2544048  -0.9260386   0.4092981  -0.0094192  -0.0886142   0.0256876
   0.0461404  -0.3651676  -0.0356626   0.3445829  -0.3764307  -0.6038702
   0.0744143  -0.0761973  -0.0508764  -0.8348421  -0.4473965  -0.9157171
  -0.1212203  -0.6285148   0.0308082   0.0117184   0.2876604   0.1618345
   0.1034895   0.7172511  -0.1507341  -0.2942851   0.1253855   0.5482426
   0.2256779   0.1233567  -0.4449791   0.2482429   0.1227004  -0.4386223
  -0.3607456  -0.4358109   0.1111297  -0.1019863  -0.2803249   0.0118566
   0.5414928  -0.0737928   0.0105446   1.2727889  -0.0750202   0.4299470
  -0.0814007   0.0910778  -0.2615282  -0.3108494   0.8683014   0.4500732
  -0.1090287   0.5387677  -0.1660190   0.0947003   0.4081656  -0.0418779
   0.6833275   0.5597211   0.4462625  -0.2078104   1.1991178  -0.1164529
   0.1648115   0.0748514  -0.1319620   0.3235716  -0.1924030  -0.3448768
  -0.1654570  -0.3615850   0.2425443  -0.1267960   0.0367416   0.0843012
  -0.4030226  -0.1010992   0.9397413  -0.1327072  -0.4359687  -0.0184904
  -0.1110547   0.0451169   0.1312038  -1.1057070  -0.1152658  -0.2579227
  -0.0783207   0.0972459   0.6134627  -0.3300223   0.0134527   0.1542720
   0.3978522  -0.0050181   0.4653615  -0.1945410  -0.0916735  -0.4270289
  -0.1389898   0.1006916  -0.1134095  -0.4265828   0.6991516  -0.0895985
   0.5802983   0.2100927  -0.4777148  -0.0502847   0.3598240  -0.1228721
  -0.0449609   1.0441529  -0.6048329   0.3228466   1.2072476  -1.0979482
  -0.1866689  -0.1613959  -0.2960221   0.0355797  -0.9805785   0.0292723
   0.6983424  -0.1571601  -0.3520026  -0.4614606   0.2059117   0.1127240
  -0.2456202   0.4383937  -0.9836530  -0.3440846   0.5453220   0.6515944
  -0.1528894  -0.1847283   0.0514784  -0.1762652  -0.6386308  -0.1472746
  -0.2122777   0.1723633   0.1202218  -0.1396692  -0.1999684   0.1310854
  -0.5763153  -0.1576119   0.0534640  -0.1460869   0.3327413   1.0123100
   0.1965342   0.0644828   0.1315070   0.7972489   0.2456212   0.4487682
   0.2868707  -0.0839376   0.5046433   0.0047686  -0.0060390   0.1048724
   0.3376490  -0.4135899   0.7968662   0.3944388  -0.3577598  -0.2780023
   0.0385736  -0.0301113  -0.2296487   0.3174546  -0.2648820  -0.6432150
   0.1549279  -0.0163512   0.3063016  -0.0408484  -0.1372609  -0.1923951
   0.4888501   0.3048537   0.9036788   0.3821122  -1.1777023  -0.4393758
  -0.2778625   0.1880313   0.1274075  -0.0934436   0.0812927  -0.6523899
   0.0539543  -0.4756834  -0.7565435   0.0882309  -0.2130702   0.1682779
   0.1099405  -0.1958611   0.1795903   0.1293371  -0.1653079   0.0931473
   0.2441439  -0.3676273  -0.0083875  -0.0766156  -0.1869465   0.0560462
  -0.2714648  -0.3509648   0.2154130   0.0739003   0.1978348  -0.0505241
  -0.0736476  -0.6579677  -1.1097182  -2.0110594   0.5871117  -0.7520317
   0.1334287  -0.0439600  -0.0596111  -0.2129659   0.3796527  -1.2257914
   0.3814963  -0.9766487  -0.7288672  -0.3402917   0.1390221  -0.2334274
  -0.8246341   0.7842149  -0.3512193  -0.8112269  -0.5794074  -0.2440129
  -0.0984810  -0.1153143   0.0166325  -0.1711227   0.1049492   0.2514115
   0.6860073   0.0439155  -0.1516150   0.4265661  -0.0132451  -0.0798984
   0.9597510   0.0379703   0.8584793  -0.3796356   0.6910922   0.0428296
   0.3319262   0.2116388  -0.1562485  -0.1688970   1.7501863   0.7210545
  -0.0230114   0.6330605  -0.2708036   0.3264194   0.1090524  -0.1072268
   0.0125497   0.0105444  -0.6624849   2.6340991   0.1355031  -1.0547909
   0.1553046   0.0877825  -0.3330059   0.6912993   0.4328549   0.5898154
   1.4508876  -0.1655037   1.1523446   0.0624183  -0.2237147  -0.2165890
   0.3561847   1.2807376   0.0237345  -0.4038015  -0.7376415  -0.4180291
   0.2524014   0.1706234  -0.1043367  -0.0662784   0.6986693  -0.8812885
  -0.1125690   0.0237478   0.9675661  -0.0904464  -0.1141627   0.0749942
  -0.4302269   0.1292755   0.1794526  -0.1724646   1.0232065  -0.4017414
  -0.0668672   0.3811058   0.2774024  -0.3322157  -0.7792152   0.3636151
  -0.3388746  -1.1554069   0.3592689   0.2451345   0.2351104  -0.0625932
  -0.8640452   0.0725731   0.6001874  -0.0229019   0.3383164  -0.5285548
   0.0950154   0.0544007  -0.0688010   0.9310152   0.6769189   0.2742497
  -0.3939092   0.1208282   0.2787483  -0.3300961   0.0546525  -0.1123726
   0.3718407  -0.7714450  -0.2543639  -0.0954164   1.4184870  -0.8603699
  -0.2909541  -0.1746430  -0.0437074  -0.4216526  -0.4745697   0.1721065
   0.1943830  -0.1687735   0.5293549   0.0182589  -0.2395462   0.0401128
   0.5215155  -0.3354588   0.2466643   0.1347468   0.0683068  -0.4113294
   0.2097640  -0.0099808  -0.0516655  -0.1285934   0.1797566  -0.4356593
  -0.8008381  -0.9232783   0.0944677   0.2818071  -0.1716079   0.1200224
   1.2329027  -0.2710922   0.5923326   0.5968237  -0.0101197   0.0069406
   0.0360281   0.0846058  -0.2923982  -0.4724904   0.0025167  -0.7147727
  -0.3179227   0.2064934   0.6177949  -0.0310464  -0.1272214   0.0388786
  -2.0075369   1.4303810  -0.0159974  -0.6724303   1.5635559  -0.9325151
   0.2610121  -0.0422495   0.1185925  -0.4310617   0.1962176   0.3320783
   1.2944421   0.8826357  -0.8809886   0.0884471  -0.2293630   0.0372901
   1.0594807  -0.5902371   0.1633552   0.0396373   0.2931835  -0.8726070
  -0.1687616  -0.3127378   0.1695649  -0.1866678  -0.1208658  -0.1003705
  -0.4291054  -0.3809362   0.0202698  -0.0215570  -0.1014918  -0.0711669
  -0.0707070  -0.1035318   0.1117486   0.2500198  -0.1636101   0.4641165
  -0.0050914   0.1081488   0.0275050   0.1050668   1.4063636  -1.3507946
  -0.8206902  -0.3142356   1.5088937   0.2658224  -0.7576691   0.1295990
   1.0848849   0.1646587   0.2865488  -0.0090817  -1.1529717   0.7812751
   0.0433688   0.5378739   0.4837728  -0.1780210   0.7891736   1.3002261
   0.1568064  -0.5741838   0.2301064   0.0626649  -0.0631008   0.1253196
  -0.1671989   0.8544661  -0.1483602   0.1602416   0.5313717   0.0140946
  -0.3222628   0.0669847  -0.1010530   1.1661325   0.2822781   0.0656738
  -0.8083812  -0.5831984   0.2180722  -0.3511845  -0.0336958  -0.0691842
  -0.4125908   0.3182978   0.1755882  -0.3681300  -0.0700250   0.0175651
  -0.1742464  -0.0962467   0.3766044   0.0178233   0.3285740   1.1068148
  -0.1835678  -0.3066779   0.0485677   0.2159090  -0.0719996   0.0558324
   0.5535147   0.0744202  -0.1976970  -1.0398717   0.3807140  -0.0092607
  -0.0678138  -0.1565450  -0.2265486   0.5385302  -0.6170359  -0.0421178
  -0.2106206   0.0898661  -0.4378746  -0.0491449  -0.1557338   0.1299350
   0.1583150   0.3841656  -0.1356049  -0.7864713   0.3146624  -0.6508850
   0.1432808  -0.3322938   0.0496893   0.3245589  -1.6353755   0.3955451
  -0.1127061   0.8432467   0.6751771  -0.4585964   0.0986753   0.0141776
  -0.2988787   0.8315150   0.7279390  -0.6811410  -0.8016141  -0.8310978
   0.0057775   0.0540543  -0.4325732   1.5564694   0.4745978   0.1558983
   0.0527556   0.5876725  -1.1762909   0.3888920   0.0316186  -0.0037943
  -1.4248811   0.5176462   0.8933972  -0.1497389   0.2003276   0.2362484
  -0.1341709   0.3301017   0.0181672  -0.1586424   0.4621319  -0.0549972
   0.7848479   0.3964103  -0.2871068  -0.0044861   0.1225754  -0.0382113
   0.3722392   0.6801455  -0.1977434  -1.1916976   0.0791569   0.5366527
  -0.0047668   0.1995355   0.0833957  -0.1789900  -0.2780659   0.2067381
  -0.0832944   0.1713892   0.2991178  -0.3090792   0.1743801   0.1412483
  -0.6812427   0.7190439   0.6780804   0.3315789  -0.2424810   0.1514228
   0.1181863  -0.1764248  -0.4188799   1.1066717   0.7995276   0.3686635
   1.0335454   0.4158387   0.8730956  -0.0607853  -0.2593309   0.0479624
  -0.6849946  -1.2214209   0.4821190  -0.5218082   0.7262771   0.7093782
  -0.0247891   0.0378496   0.2091813   0.4242337  -0.3217433   0.7020297
  -0.5654742   0.6993420  -0.1166685   0.0875748   0.1844181  -0.3774978
   1.2979606   0.1449817  -0.8808531  -0.8441956   0.1714606  -0.1122094
   0.0139384  -0.0495914  -0.1106249   0.3084478  -1.1391429  -0.7133385
   0.6263663   0.0643354  -0.4281407  -0.0538249  -0.2190493   0.0664559
   0.0659476  -0.5349918   0.1397548  -0.2321816  -0.3266175  -0.0279809
   0.0423222  -0.2362505  -0.1784128  -0.3784195  -0.4512872   0.3083351
  -0.5125500  -0.0018645   0.6475031  -0.1165959   0.1621064  -0.1272724
   0.2283533  -0.4532923  -0.0051178  -0.8306422   0.3217780   0.2547641
   0.1707437   0.0396973  -0.0339599   0.0949345   0.3781091  -0.2040800
  -0.2741755  -0.0179692  -0.0189970  -0.1892205   0.0376092  -0.2099502
  -0.5847482  -0.0326065  -0.5000960  -0.1651949  -0.1147866  -1.2325800
   0.0389820  -0.0600892  -0.2901032   0.0130277   0.3206825  -0.5869970
   0.0734217   0.0170354  -0.3400815   0.4038964  -0.2286608  -0.2753411
   0.2279628   0.1088642  -0.1598040  -1.6211267   0.5486071   0.4288742
  -0.3422027  -0.0288395  -0.0563995   0.8326307  -0.0745721  -0.1534466
  -0.3423807   0.1965679  -0.1170001   0.1958786  -0.2595491   0.0153576
  -0.1456925  -0.3417760  -0.6429570   1.0563117  -0.2619360  -0.0513073
   0.2378096   0.0894101   0.0505704   0.1792723   0.2157930   0.0766736
  -0.0458420   0.7739411   0.2139152  -0.3890518  -0.1846126   0.4031998
   0.9641958   0.5229563   0.3877028   0.9693661  -0.0179880  -0.6631969
   0.0701756  -0.2458715  -0.0854290  -0.1357765  -0.1508208   0.0671154
   0.3046948  -0.2630724   0.1426572  -0.2075255   0.0742887  -0.1749721
  -0.2813678  -0.3997459  -0.0678129  -0.1404158   0.3701849   0.5786097
  -0.2618545   0.0141616   0.2693770  -0.7097235   0.1528628   1.1841186
   0.1208309  -0.1662021  -0.1733221  -0.0019162   0.3299523   0.2593655
  -0.2215599   0.3270684   0.2015175  -0.2925054   0.8874295   0.3918092
  -0.1328717   0.0689729   0.1946741  -0.7248190   1.1002712   0.5513962
   0.2558316   0.8068961  -0.0180037   0.1913082  -0.0249797   0.0931299
   0.3325114  -0.3193863   0.2690264  -0.0188471   0.0075481   0.0745374
   0.1602650   0.2329036   0.2861417   0.1829621  -0.1764329   0.3289349
   0.1780209   0.0666792  -0.0205334   0.0832964   0.0726499  -0.0363570
   0.9727226  -0.6819251  -0.4530036  -0.1124884  -0.8380053  -0.1433415
   0.1934024  -0.1128879   0.0860789   0.1782634   0.0053284   0.1178685
   0.1908433  -0.0932451   0.1354493  -0.1172598   0.2370694   0.0706407
  -0.6208218   0.4287255  -0.0869957   0.3194701   0.2567125   0.3807858
   0.1329680  -0.3092703   0.0637499  -0.1695042   0.0608203   0.1597169
   1.1594091  -0.0079669  -0.3538960   0.0721996  -0.0540927   0.0474726
   0.1555995   0.4995067  -0.2017082  -0.0841540   0.0484977  -0.4572407
  -0.0782408  -0.1687927   0.1578961  -0.1105023  -1.2174805   0.4859465
   0.0553715   0.0708401  -0.8277667  -0.0174481  -0.1647683  -0.0125335
   0.3250077   0.3271742  -0.6223624   0.7581997  -0.5544972   0.1938087
  -0.1639023   0.0040146   0.1065414   1.2545504  -0.4714377   0.4834963
  -0.4885442  -0.9132195  -0.9211242  -0.1107117   0.0325280   0.4043391
   0.4583161  -0.2308245  -0.8934229  -0.5488722   0.4014007   1.1137614
  -0.3088451  -0.3001911  -0.3401108   0.2477023  -0.7472472  -0.7854336
   0.5074113  -0.7133883  -0.3911933   0.3796954   0.1395865  -0.0461053
  -0.5895453  -0.0972014  -0.6024941   1.4873174   1.2873265   0.7288789
   0.0798653   0.4172587  -0.2098671  -0.1212610   0.2658009   0.5239258
  -0.4303997   0.5134974  -0.8520957  -0.1027984   0.2003609  -0.0853366
  -0.1032599   0.1759925  -0.3407934   1.2044984   0.1188384  -0.8334301
  -0.0261440   0.0986413  -0.1325495  -0.3684878   0.0785942   0.6384237
   0.6900106   0.0764355  -1.5380229   0.1926624   0.2890938   0.2481155
  -0.1199406   0.8373666  -0.9868787  -0.3782569   1.2348877   1.1409659
  -0.0862493  -0.0448424   0.0447241  -0.6612410   0.0498321   0.2764920
   0.3429272  -0.9463163  -0.4443858  -0.1580163   0.1528693  -0.2902439
   0.3067295   0.0148855   0.8343460  -0.0641426   0.2632845  -0.5896916
  -0.1691731  -0.1142721   0.1297298   0.0476375   0.2038097  -0.0071463
  -0.2153046  -0.8576539  -0.3120690  -0.0331239  -0.0893525   0.2109232
  -0.4384903  -0.2470271  -0.3378593  -0.2721082  -0.2503366   0.1202232
   0.2331584  -0.0813838  -0.0567145  -0.6065209  -1.5180279  -0.3280948
  -0.6136264   0.0557643   0.9289206   0.2290067   0.0549667   0.0371757
  -0.3650882   0.7141212  -0.5956135  -0.3973386  -0.5984052   0.9861161
  -0.1188038  -0.1001954  -0.0465182  -0.8779810   1.2776906  -0.2660581
   0.5706575  -0.6047414   0.4130961  -0.0480197  -0.0894549   0.0687104
   0.3077910   0.0596245  -0.6041333  -0.1970348  -0.1821175   0.5803483
  -0.2969174   0.4389968  -0.2123306   0.3947486  -0.1155236  -0.0695556
   0.9709657   0.0981644   0.9380495   0.1198078  -0.1639874   0.1460331
   0.5943946  -0.4613480   0.1015725   0.0490904  -0.5343724   0.1826151
  -0.0041322   0.1204797   0.3763102  -0.2677602   0.2030489   0.0164242
  -0.4161852   0.2903229   0.0431077  -0.4431662   0.1569575   0.1542316
   0.3380709   0.5062252   0.0258159   0.7592042   0.3682122   0.0513561
   0.1102870  -0.1866466  -0.1169699   0.6540122  -0.0733230   0.3664981
   0.5037162  -0.2840589  -0.1029991   0.0032783  -0.4150947   0.1886404
  -0.0944882  -0.5383196   0.6327105   0.7831086  -1.0001654  -0.4617385
  -0.1114445   0.0145018   0.3660911  -0.0126622  -0.2891808   0.5223284
   0.1206852   0.6396688  -0.2305700   0.0226080   0.0394173  -0.0818766
  -0.4883360   0.8768350  -0.3291539   0.2429363   0.9842299   0.7085519
   0.1646871  -0.0279397   0.0047777   0.7933356  -0.1627967  -0.8719992
  -0.0645419  -0.1804830   0.1886788   0.1539663   0.2363632   0.2546723
  -0.2702555   0.8819671   0.2900025   0.8608518   0.2647018   0.4475750
   0.0594336  -0.1247095   0.0217567   0.3523529  -0.7062106  -0.0210002
   0.6407549  -0.9473573  -0.0030708  -0.0640026   0.0328126   0.0826521
   1.0831811  -0.3464264  -0.5821456   0.0624178   1.0577361   0.3996187
   0.2868088   0.1363441  -0.0762486   0.2337518  -1.4936883   0.3643437
  -0.3514194   0.4826522   0.4797863  -0.1432832  -0.1782840  -0.1320087
   0.7928879   0.2584008  -0.7528567   0.6817298   0.1144478  -0.1153802
   0.0833623   0.0955405  -0.3183908   0.0823762   0.0612491  -0.3264744
   0.0776575  -0.4369907  -0.4332675   0.2889331   0.0742903   0.1588266
   0.5223866   0.0306335   0.4035009   0.3440739   0.0332768   0.2996245
   0.0722127   0.0661370  -0.0158194   0.1196375   0.5079498  -1.1721628
   1.6018129  -0.0895847  -0.7257777  -0.0284071   0.0228112  -0.1953588
   0.1613671   0.1517268  -0.1279604  -0.4611129  -0.0363197  -0.2478280
   0.2803887   0.2185462   0.0472066  -0.1437339   0.1033103  -0.7679573
  -0.7915020  -0.3978356   0.2368080   0.2760610  -0.3200416   0.1364960
  -0.7470288  -0.4165149  -0.2419022   0.2530692  -0.5422970   0.7706752
   0.2370365  -0.2064911   0.0956954   0.4916559  -1.2661552   0.1173984
  -0.0929666  -1.0194037  -0.0846361   0.1815116   0.3385141   0.0261636
   0.1863278   0.3182505  -0.0064856   0.1195671   0.1641959  -0.0526878
   0.1816156   0.0719145   0.0655919   0.1975026  -0.6666381  -0.9338355
  -0.9287340  -0.2457709   0.6829446   0.2398987  -0.0346933  -0.0640584
   0.2764871  -0.0689046   0.1953910   0.5605599  -1.0654090  -0.6624853
   0.0101046   0.0966060   0.1149263   0.3326937  -0.6422454   0.5658601
  -0.5296367   1.1416656  -0.1196580  -0.1067236   0.0603601  -0.0071695
  -0.3524768   0.3201454  -0.1596291   0.0805139  -0.0978697  -0.3153730
   0.0333544   0.0198691  -0.1419187  -0.0272005  -0.4387880   0.8701672
   0.2791223   0.8313755   0.8756860  -0.0809333  -0.2926041  -0.0206429
  -0.1838755  -0.4466259  -0.6850008  -0.8532761  -0.1488650   0.7531070
   0.1214730  -0.0313037   0.0582589   0.0157321  -0.0582571  -0.3048715
  -0.8598023  -0.4260509  -0.0854535  -0.2391848  -0.0939125  -0.1659934
   0.0546972   0.9327375   0.8937688   0.5082925  -0.3312389   0.3286136
  -0.0593611  -0.1147566   0.0740166  -0.4906341   0.6184988   0.0830968
   0.0722045  -0.5539352   0.3029859  -0.1649337  -0.3318204  -0.1050845
  -0.5186549   0.0501231   0.0715940   0.2870759  -0.0732434  -0.2096183
   0.0009905   0.0555241  -0.0085927  -1.7614792  -0.0341031  -0.4039470
  -0.5663971  -1.2911272  -0.5169156   0.1669636  -0.0568816  -0.0823186
   0.6325567  -0.3253840   0.6313818  -0.0195067   0.6788196   0.0887915
  -0.0190895   0.0625075   0.1956834  -0.1695945  -0.3881134  -0.1256521
   0.0278494   0.0352074  -0.5354489   0.1228136  -0.1778946   0.2102039
  -0.0943230   0.1088182   0.3689786  -0.0444038  -0.3047641   0.3905280
   0.1376471  -0.0435474  -0.3400699  -0.7697497  -0.6260076   0.6641866
  -0.4379474  -0.5691972   0.9022603   0.3184869  -0.0828471  -0.4371334
  -0.5697803  -0.2190200  -0.5225653   0.4172561  -0.0907451   0.4608791
   0.4228428  -0.1041452   0.3020980   0.5118386   0.0866170   0.7192396
   0.3950926  -0.2152406   0.0083800  -0.0179355  -0.0444061  -0.1031817
  -0.6863660  -0.1868284  -0.2895556  -0.4653286  -0.1402809  -0.2156179
   0.1141898   0.0419323  -0.1371389  -0.3778162  -0.5796967   0.4080021
   0.6818362  -0.4224715  -0.6610915  -0.3401478   0.1809626   0.0048213
   0.4760895   0.1458296  -0.7128705  -0.7429301   0.1892751  -0.1791228
  -0.0103626   0.1554794   0.1098545   0.3597598  -1.0808854   1.0274821
   0.5223947   0.0958267  -0.4096296  -0.0163066  -0.3145842  -0.0051547
  -0.4013698  -0.4241646  -0.8399590   0.6586509  -1.1277569  -0.1883581
   0.0855915   0.3659554   0.0199726   0.4663237   0.1557474  -0.0426204
  -0.0295028   0.5005321   0.4812247   0.4512986  -0.0434610   0.2560723
   0.4024055   0.3165213   0.8061367   1.0478204  -0.2901905   0.1367605
  -0.1094079   0.4127671   0.0112669   0.5561237   0.2716805  -0.5088705
   0.3041248   1.0827948  -0.4790924   0.0122749  -0.0778856   0.3272461
  -0.2099094   0.5806982   0.2910481  -0.0664546   0.0350946   0.4322600
   0.1109610  -0.2378749  -0.2175744   0.0644053  -0.7112092  -0.5972480
  -0.0244484   0.2316708  -0.3393398  -0.0752952  -0.1181727  -0.1438597
  -0.4918219   0.1588832   0.6264943  -0.5698378  -1.0690619   0.2581720
  -0.0351137  -0.0268551   0.1245411  -0.4393602   0.4567021  -0.8994011
   0.8098468  -0.6451179  -0.5296576  -0.2291527  -0.0913351   0.0572414
  -0.4854188  -0.0344001  -0.0657737   0.2577974   0.2334211   0.5038984
   0.2614895   0.0301783   0.0364935   0.5434088   0.0126753  -0.5150493
  -0.2280727   0.4513092  -0.0362674  -0.0475013   0.0662329  -0.3322219
  -0.1958175   0.2369451   0.4045911   0.0717974  -0.1687625   0.0926248
   0.1623498   0.0796370   0.1235648  -0.3050465  -0.6719083  -0.9521045
  -0.5242882   1.6514281   0.4070357   0.2393958  -0.0958959   0.1616028
  -0.4578193   0.3722033   0.0799726   0.1337855   0.6895211   0.9187692
   0.1925683  -0.1408609  -0.1942884   0.2488585  -0.1876761  -0.3060325
   0.3291970   0.5279802  -0.7741356   0.0710323  -0.0251075   0.2031572
   0.5133903   0.4640621   0.2557859  -0.8727954  -0.8695484   0.1133260
   0.1809533  -0.1012046   0.2455591   0.0245655  -0.0945187   0.1433461
   0.9026033   0.1176761   0.0912819   0.2249661   0.0541464  -0.2530782
  -0.1640353   0.7715103   0.0244140   0.2956039   0.0255262   0.0158041
   0.2419320   0.1002071  -0.0742564   0.6172761  -0.0607245  -0.3763039
   0.0023161   0.0834659  -0.4901056  -0.1275244   0.0865741  -0.3643958
   0.0890645   0.1241393  -0.7328056  -0.9121274  -0.3769762  -0.4417441
  -0.0136059   0.1304430   0.2166813   0.2833191   0.0181300   0.0095974
   0.1278641   0.2591016   0.3070181  -0.4273007   0.0435720  -0.2864805
  -0.4458437  -0.1680344   0.5475362  -0.5754398  -0.2113765  -0.8326742
  -0.0141449   0.2907610   0.0776765  -1.0786415   0.5495572   0.2459561
   0.8546519   0.0594828   0.0253572  -0.1231752  -0.1698093   0.1519211
   1.5060189  -0.8289918   0.1716668   0.0990993  -0.2357280   0.0778232
  -0.1964806   0.1164977  -0.0664668  -0.0609350   0.2938896  -0.5325791
  -0.4105793  -0.0723724   0.2375779  -0.2105140   0.1259394  -0.0287921
  -0.5254056   0.1075890   0.8861933  -0.5116683   0.1014711   0.8612015
   0.2016553   0.0636674  -0.4019786   0.4817871  -0.3953616  -0.5834511
   0.0211420  -0.4779731  -0.9451617   0.0774598  -0.1518769   0.0385381
   0.9448880  -0.7339420  -1.1367790   0.2729775  -0.3194146  -0.2623356
   0.0045139  -0.2020333   0.0689654   1.3512229   0.3717557  -0.1252687
   0.0388903  -0.1505191  -0.0190768   0.3315402  -0.1682745   0.0322031
   0.1744818   0.4179694  -0.0337222   0.6800030  -0.7034792  -0.4968975
  -0.1347167   0.2825261   0.4383604   0.6467625   0.5230998  -1.1885371
   0.2371642  -0.4556028   1.5911904  -0.2559510  -0.0475626  -0.0519217
   0.9479195   0.4607026   0.0378342  -1.4310435  -0.5815529   0.7302075
   0.1933594   0.1152411  -0.2911875  -1.0552995   0.7026024  -0.3425558
  -1.2101404  -0.1838008  -0.1699699  -0.1065129   0.0361156  -0.1054386
   0.1640061   0.2130422  -0.0924219  -0.2240222   0.1589371  -0.4742534
   0.1016707   0.1589996  -0.4849726   0.3069934  -0.2509882   0.0416989
  -0.0558627   0.5895736  -0.9215942   0.1863017  -0.2685466   0.0831199
  -0.0206483  -0.2642217  -0.8440754  -0.4658610  -0.2886937   0.8180480
   0.0074676   0.0851080  -0.3428657   0.7192599   0.0905833  -0.3326296
   1.0517951  -0.2203493  -0.2722552   0.2324008   0.0173706   0.1935840
   0.3444473  -0.0632081   0.1088901  -0.1393965   0.0466570   0.2655035
   0.1610185   0.1874764   0.0352033   0.5153068   0.2503701   0.0406970
   0.3439755   0.1221482   0.5566839  -0.1802806   0.0884502  -0.0767230
   0.3058256  -0.2281182   0.6145831  -0.4650447   0.7016304   0.1479637
   0.4029857   0.1674374  -0.2021596   0.9035167   0.2130854  -0.7156999
  -0.3463204   0.2401039   0.1399642   0.3732018   0.2289334  -0.1719864
   0.6818867   0.1801699   0.5079260   0.0997887  -0.3694389  -0.0256080
   0.0714646   0.2115276  -0.0998325   0.7473051   0.6140891   0.2346241
  -0.8745785  -0.1368718  -0.0574028  -0.1280810   0.0787250  -0.3358835
  -0.1851364   0.1361127  -0.4835649  -0.0668235   0.0837169  -0.3069463
  -0.0356908  -0.1226078   0.3496871  -0.2788600  -0.1882434  -0.5057592
  -0.8298422   0.4342019   0.8499447  -0.0948642  -0.0205151  -0.1542660
  -0.1128797  -2.1242272  -0.8634099  -0.1145524  -0.8821658  -0.7294580
   0.0235674   0.1440167  -0.0885009  -0.9551971   1.1929417   0.9799809
   0.2497132   0.0551871  -0.3589325  -0.1069296  -0.0079891  -0.1852150
   0.1916572  -0.8109450   0.0851382   0.2503273  -0.0049373  -0.3313161
   0.0355177  -0.1915607   0.1486749  -0.1331666  -1.0652663  -0.8722580
   0.0435741  -0.4992426  -0.2059546   0.3913848   0.0032297   0.0968753
   0.2430204   0.5098193  -0.4430754   0.7050173  -0.3156915   0.1068010
  -0.0584866  -0.0805325   0.0689801   0.8164407   0.6312164   0.5068686
  -0.5868181  -0.7384450  -0.2292863  -0.0440026  -0.4432224   0.1582517
  -0.1679538  -0.4680651  -0.3469725   0.1399599  -0.2356889   1.3061671
  -0.0250879  -0.0398945   0.4283011  -0.6666114   0.0730483   0.5306734
  -0.0781357  -0.5094526   0.6636513   0.0287915  -0.1708923  -0.0750569
   0.5022723  -0.5232802  -0.5137003  -0.4458695  -0.4286809   0.0525575
  -0.2994189   0.0417668   0.0539507   0.0172624  -0.1744812  -0.0843530
  -0.3203560  -0.4865677   0.3821681  -0.0425793  -0.0849212  -0.0793821
  -0.7679361   0.0998011  -0.1380160   0.4373088   0.2055749   0.4512515
  -0.2404561  -0.5000894  -0.1798945  -1.2983081  -0.7208227  -0.2884960
  -0.2197250   0.3763297   0.4023484   0.1115323  -0.1305055  -0.2413257
   0.0043811  -0.7966654  -0.4163817   0.9068675  -0.3953396   0.1394095
  -0.2137012  -0.2659658   0.1286207  -0.2087247  -0.1145838  -0.0168946
   1.5816699   0.7393096  -0.0950536  -0.2423687   0.4373324  -0.0545902
  -0.2654154   0.7675510   0.1580944  -0.0482222  -1.1143568   1.6768740
   0.6016791  -0.1159688  -0.1867074   0.4182537  -0.0718069   0.0887345
   0.7111135   0.1843066  -0.0930282  -0.2252976  -0.0055908   0.0522462
   0.7469912   0.1866948   1.1544705   0.8094210  -0.1710850   0.0283718
   0.0488127  -0.2990860  -0.2600563   1.2596693  -0.8946641   0.6589031
   0.8398807   0.1509886  -0.2088086   0.2825371  -0.1247195   0.1007514
   1.0149807  -0.8135805   0.0669015   0.7187797  -0.4377764   0.3115627
   0.2187848  -0.1205306   0.2718495  -0.1634398  -0.0429840   0.7185310
  -0.5708956   1.2830419   1.5001349   0.1393386  -0.2948865   0.3048758
  -0.9408309   1.6544291   1.1087545   0.9370197  -0.2644573   0.6374519
   0.1576459   0.2284462  -0.0854891  -0.6422882  -0.1145469  -0.3669231
  -0.6723355  -0.0464473  -0.2170987  -0.0654340  -0.2189490  -0.0333392
   0.3841971  -0.8147444   0.0043998   0.1481418  -0.0559613   0.1446950
  -0.1553287  -0.0511505   0.0526728   0.0494507   0.6626523   0.2052962
   0.2142139  -0.4457275   0.1371702  -0.0283678   0.2357689  -0.0653009
   0.6969319  -0.7197885  -0.9230841  -0.5178953  -1.0633855  -0.1951997
   0.2350949  -0.1137256   0.2329060   0.7211159   0.6267269   0.6973223
   0.0629813  -0.1522744   0.5385685   0.0887815  -0.0099520  -0.0383585
   0.3508955   0.1014462   0.3448643  -0.0211304   0.5969503  -0.0908045
  -0.0888852  -0.0191580  -0.0962246   0.5380147   1.5904949   0.1044942
  -0.2578945  -0.7753553   0.7113468   0.0464064  -0.0178699  -0.3765530
  -0.5423675  -0.6224869  -0.0411964   0.4409684  -0.3733237   0.1266795
  -0.0485343   0.1664488   0.0807226  -0.3042400  -0.5157244  -0.2547236
   1.3038088   0.4777431   0.6575375   0.2152812   0.0244892  -0.1378219
  -0.1145832   0.3802717  -0.2583061   1.1757597  -0.1039107   0.8734041
  -0.0314132   0.1914308  -0.1413389  -0.8713586   0.8453938   0.3790108
  -0.2286272  -0.8127793  -0.4068391   0.0784508   0.2416415   0.1384311
  -0.3180627   0.3729771  -0.3406535  -0.2100026  -0.7323162   0.1409355
  -0.0633496   0.0057673   0.3588635   0.5919781   0.6188367  -1.3694422
   0.5402560   0.6421180  -1.6626043  -0.0946275   0.4859358  -0.2002572
  -0.4223794   0.3565967   0.2370758   0.3524660   0.0975667  -0.2370721
   0.0279504   0.2041380  -0.1745556  -1.4166290  -0.6388691  -1.1598359
  -0.5231071   0.4974581   0.1425531   0.0456921  -0.1434206   0.0328194
  -0.7379230  -0.7177672  -0.3986496   0.7987613  -0.3266076   0.1019669
   0.0967384  -0.0940933   0.0192738   0.2601679   0.4774716  -0.1597227
  -0.4198351  -0.8127711   0.2358509  -0.1241984   0.0610176  -0.1128450
  -0.2637630   1.0055210  -0.7060026  -0.5520259   0.0433853  -0.0803626
   0.2420757   0.0534307   0.2126332   0.5648514   0.7485591   0.2376109
   0.3584145  -0.0008431   0.3381898  -0.3273368   0.1028493  -0.0604573
   0.9470531  -0.2651094  -0.1126775  -0.4189669   0.8720373   0.8671920
   0.2045406  -0.0681311   0.0327824   0.2534512  -0.3653290  -0.7731464
   0.0667922   0.0159778  -0.0378527  -0.1534338  -0.1129677   0.0658282
   0.3226032   0.3951599  -0.3315108   0.0296478  -0.0839419   0.7704391
   0.0639042  -0.0249421  -0.0380408  -0.6313469  -0.1319557   0.4577267
  -0.5229181   0.0531218   0.2512638   0.2011006  -0.0716059  -0.1953473
  -1.8010457  -0.8083688   0.8617849  -0.2700312  -1.8491961  -0.7202681
  -0.0507701  -0.0667051  -0.1639768   0.2461835  -0.2638546  -0.2719655
  -0.2305306  -0.2681677  -0.0995440   0.0363589   0.0866919  -0.1552664
   0.0549673  -0.9519544  -0.1634675   0.3302969   0.2403457   1.1219983
   0.0953685   0.0468660   0.1356477   0.1027621   0.4288116   0.1713473
   0.0425176   0.0672746   0.2600634  -0.1562733   0.2235368   0.0831090
   1.0097038  -0.1490342   0.2728348  -0.1462126   0.0712396   0.7894050
   0.0058479  -0.1452814   0.0933546  -0.1944692   0.1237334   0.9792370
  -0.2181207  -0.9566834   0.0780276   0.1004772  -0.4412119   0.2290362
  -0.5347599  -0.3695534  -0.0558801  -0.3744985  -0.0602804   0.5100388
  -0.2198177   0.0505959  -0.1159534  -0.4861186   0.4465103  -0.4956192
  -0.0878757   0.5613096   0.2887552  -0.0683496   0.0995674  -0.2499599
  -0.0824698   0.0034287   0.1938171  -0.5145130  -0.0839106   0.5025782
   0.0928687   0.0944648  -0.2416329   0.6112983  -0.5330616   0.0033589
  -0.2731923  -0.1949649  -0.1767477   0.3433929   0.2256865   0.1483382
   0.4310066   0.8092214  -0.1129758   0.9502767  -0.9690421   0.8568518
   0.3261566   0.2922969  -0.1804869  -1.2903202  -0.9808663   0.2812573
   0.7457983   0.3610788  -0.1694137   0.0693310   0.2737542   0.1462290
   0.1249132  -0.4850970   0.0298866   0.0404035   0.5577049   0.2199074
  -0.0460922  -0.0538730  -0.2290862  -0.8673461   1.3464922  -1.0641096
   0.2208775  -1.5544684   0.0148079   0.2003053   0.0115535   0.0127306
  -0.0097228  -0.4829747  -0.0761922  -0.8484839   0.5579538   0.0175386
   0.4189193  -0.1879054   0.2170596   0.1037453   0.0901468   0.4226884
  -0.1451239   0.0793220   0.9366213  -0.4237056  -0.2122752  -0.0241747
   0.3068763   0.1312191  -0.2818592   0.1627628  -0.8608042  -0.3348435
  -0.1017455  -0.0320037   0.2920221  -1.4461420  -0.6270239   0.0260766
   0.7830564  -0.9698896   0.6225914   0.0086618  -0.0475459   0.0231713
  -0.5319133   0.7073566  -0.3507648   0.0723388  -0.5194088  -0.0429549
   0.3037844  -0.1398616   0.1655021  -0.8153757  -0.1582025  -0.2370287
   0.6344492  -0.5830034   0.4622767  -0.0668507  -0.0468410   0.1594938
  -0.6520659  -0.5775793  -0.7139693   1.7734176   0.6327807   0.1070680
  -0.3255379   0.3364148   0.0149600   0.0157759  -0.6200436  -0.0504144
   0.7803159   0.2851228   0.2847795   0.1454149   0.1559001  -0.0868795
  -0.2441312   0.3570464  -0.2697953   0.5473498   0.4791127   0.5363737
   0.2636343   0.1156470  -0.0727351  -1.0324101  -0.6573967   0.3104410
   0.1871742  -0.0981693  -0.2148310   0.0933918  -0.1474785   0.0225065
   0.4705519   0.3761753   0.2107608   0.2564197  -0.7165646  -1.0248629
   0.1343310   0.2138851   0.1094698   0.4086544  -0.5547247  -0.5139289
   0.0118674   0.4744096  -0.0779543  -0.2103279  -0.0289274  -0.0863345
  -1.1313908  -0.7789109  -0.1275748   0.7111596  -0.3819517   0.1704957
   0.0486484   0.1209161  -0.0667523   0.0002224   0.1373326  -0.0955621
   0.2218770   0.0568465   0.0517426   0.1348445   0.3449267   0.2764883
  -0.6977407   0.6853064   0.8020184  -0.7894553  -0.0045248  -0.0825730
  -0.0049102   0.0874497   0.1886198   0.9509576  -0.1175627   0.1547720
  -0.0430052  -0.0156585   0.6144640   0.3192314  -0.0814565  -0.1028833
   0.0379590   0.5591692  -0.2498338   0.2719433  -0.4293301  -0.7308870
  -0.2756904  -0.0319983   0.1264878  -0.7194152   0.5125975   0.0792347
   0.1916981   0.2332017   0.7737047  -0.0973430   0.0438952   0.0007473
  -0.2142545  -0.4178285   0.4936733   0.7715354  -0.3076547   0.9467487
  -0.1728069  -0.1292998  -0.3426614   0.2019736  -0.7892841   0.5640639
  -0.3375825  -0.7934917  -1.2571025   0.1022339   0.2968286  -0.3813938
   0.1433589   0.2157020  -0.1750644  -0.3394447  -0.1617834  -0.1712444
   0.2547985   0.1754516   0.1720621   0.5019509   0.3243164   1.1010104
   0.4407998   0.2825440  -0.2167750   0.1553476   0.1909896  -0.1054178
  -0.1667760  -1.5259964   0.0237260   0.8676958   0.2056153  -1.1448447
   0.0222023   0.1541406  -0.4010660  -0.0597382   0.9067335   1.3447647
   0.6451595  -1.4509336  -0.2046136  -0.0638490  -0.1977374   0.0348972
   0.4649372   1.1040322  -1.0386891  -0.4353889  -0.9332184   0.6765001
   0.2414556  -0.1467324  -0.0016073   0.1327536  -0.1777197  -0.2277070
   0.7938056  -0.1139600  -0.4404625   0.1332972   0.0707116  -0.0391666
   0.6044464  -0.6235734   0.9363717  -0.3113489  -0.2099730  -0.7832371
  -0.0808645   0.3216632  -0.0855616   0.5644286   0.0828393   1.8877611
   0.7491702  -0.7727992  -0.4393482  -0.2042362  -0.2489988   0.3001152
  -0.0759346  -0.3465550   0.0135799   0.1274843   0.3783256  -0.2610563
   0.0631294   0.2026310   0.0217623   0.1633506   0.0598778  -0.0695277
   0.1419887   0.2315654   0.1747737  -0.2422197  -0.0711950  -0.0812471
  -0.2748139  -0.0830758  -0.3078782   0.1668297  -0.0877225   0.0239428
  -0.0298361  -0.0104877  -0.1466564   0.0836666  -0.9177367  -0.1101680
   1.2116401  -0.3261747   0.3173336  -0.0401416  -0.1519522  -0.1021216
  -0.5022485  -0.1952681  -0.3411479   0.1441164   0.1579051   0.0984568
  -0.1729010  -0.0887022  -0.3512036  -0.2333885  -0.1400320  -0.2474027
  -0.0357753  -0.0145967  -0.4873305   0.0575094  -0.0774440   0.4122859
   0.3487064  -0.2911588   0.4676847   0.8244614   0.3067610  -1.1077255
  -0.1734651  -0.0138588   0.1875272  -0.6734838  -0.6386184  -0.0182072
   1.1399576  -0.7201997  -0.8802375   0.1266200   0.1314210   0.1018062
   1.0742618  -0.0568462  -0.0598057   0.2709911   0.1454769  -0.1752996
  -0.0359476   0.3390353  -0.0224602  -0.8077475   0.5316134  -0.1049651
   0.2590517   0.8865298  -0.0492821   0.2067377  -0.1273673   0.3178992
   0.3239793   0.0125262   0.1384187   0.7190726  -0.5462842   0.4774228
   0.2955268  -0.0633359   0.0034191   0.5205435  -0.7469241  -0.2521842
   0.3078197  -0.0524812   0.1075338   0.1463459  -0.1840438   0.3005000
  -0.8809449   0.8464193  -0.1389856  -0.1961918   0.0638998   0.1256826
  -0.1182688  -0.0282631  -0.0002607   0.7849319   0.4737913   0.8024040
  -1.1798555  -2.0893796  -0.5404882   0.3184285  -0.0620924   0.0010285
   0.2828875   0.2842098   0.7352278  -0.0199183  -0.7700542   0.1577364
   0.1102435  -0.2267443   0.2298796  -0.8042427  -0.7706506  -0.7513020
  -0.2286556   1.4822653  -0.2816042   0.2296364  -0.3440482  -0.0425810
   0.1847949  -1.1639637   0.2413897   0.3859730  -0.4251414   0.3679450
  -0.3259580   0.1537384  -0.1074253   0.2976311  -0.7073988   0.4024815
  -0.0462822  -0.4048400   0.0142588   0.3240231  -0.0078649  -0.3315659
   0.8887916   0.0285170   0.8564233   1.0004358  -0.5625858  -0.3279018
  -0.4637633   0.1720223   0.3708588   1.1634609   0.9645801   0.0819396
   0.5358953  -0.0016783   0.1334396   0.0808520   0.1813140  -0.0836806
  -0.1382919   0.3774994   0.5190299   0.0299210   0.0929231   0.0029229
  -0.1471456  -0.2984497   0.1159538  -0.0676137  -0.4217967   0.1545223
  -0.2229629  -0.1462309  -0.6625499   0.0491560  -0.2409962   0.0983668
   0.5347102   0.4571010   0.4135597   0.4990904   0.2159092   0.3401158
  -0.0266899  -0.2091528  -0.0661274  -0.4289260  -0.2159544  -0.4285649
   0.2427294  -0.3107032   0.7497777  -0.0436091   0.1395546   0.0612636
  -0.2151996   1.2137284   0.3565496   1.1248974   0.4330995  -0.3298505
  -0.0698065   0.0363150   0.0824597   0.0203562   0.5747573  -0.3560091
   0.0330608   0.1704975   0.0622263  -0.0647961  -0.1619643  -0.0036175
   0.1468536  -0.0981049   0.0328484  -0.2398619   0.2364488  -0.0569212
   0.0211397  -0.0097982   0.3878416  -0.6433395   0.5767906   0.2994624
   0.7256145   0.2271050   0.7228832  -0.0194131  -0.0812154  -0.3467607
  -0.5071399  -0.1208753  -0.3071732   0.0224808  -0.1891433  -0.4479101
   0.1700783  -0.0228429   0.2308202   0.6061486   0.3494271  -0.9361321
  -0.6790789   0.4426989   0.2622362  -0.1298454  -0.0977421  -0.0196438
  -0.1589171   0.2524493   0.2075352   0.1266553  -0.8918781   0.4442759
   0.2463048  -0.0647994  -0.1141447   0.0838496  -0.1919589   0.2008986
   0.2157467   0.6900213  -1.2359629  -0.1826760  -0.1212959  -0.0237687
   0.0989833   0.7088523   0.3811284  -0.0286551   0.3604880   0.0120990
  -0.2257595  -0.3356176  -0.2296826  -0.6742583  -0.3226405  -0.0566450
   0.1658752  -0.3205343   0.0741990  -0.0238749  -0.1233698  -0.3434740
   0.4307476  -0.1020464   0.4242973   0.1625434  -0.0897022  -0.4124513
   0.0586545  -0.1847219   0.6632113  -0.2170112   0.0368394   0.4271086
  -0.1094676  -0.7091003   0.7118720   0.1280201  -0.1505251   0.0010975
  -0.0492517  -0.5506286  -0.0821928   0.1693636  -0.6652598  -0.3220488
   0.1783939   0.1598085   0.2876443   0.4695214   0.0302657  -0.1404650
  -0.1547547   0.7059020   0.0891845   0.2090269   0.0200892  -0.2652676
   0.0294698  -1.1995520  -1.4238208  -0.2226165   0.0915466  -0.8161184
   0.0261257   0.2091957  -0.0474696   0.6337227   0.5785145   0.4675539
  -0.1384041  -0.8066749   0.0188706   0.1245265   0.1318481  -0.2331561
  -0.2703727  -1.1619430  -0.0292248  -0.3438973   0.4279602  -1.4089434
   0.0682735  -0.0613129  -0.0374173   0.2761607   0.0889429  -0.5281716
  -0.6627041  -0.1739510  -0.2127987   0.0417373   0.0634621  -0.1144820
   0.1058075   0.7443430  -0.1601450  -0.0387212  -0.3400332   0.5405247
  -0.1122772  -0.1980503  -0.0651023  -0.5741428  -0.5090038   0.0063769
  -0.2400266   0.3140909   0.1246721   0.0017204  -0.1299919  -0.2189077
  -0.3143831   0.7812322  -0.7792842  -0.3435257  -0.9396754  -0.4742593
  -0.2771868  -0.2754764   0.1642534  -0.1116751   0.8658544  -0.2256996
   0.1340476   0.9293791  -0.5673150  -0.0961902   0.0281309   0.1944054
   0.0761779   0.3561114   0.5139632   0.5395644  -0.2733205   0.0513452
   0.1142459  -0.2059306  -0.1496637  -0.1103598  -0.0543981  -0.2576843
   0.3725240  -0.3514822  -0.2180893   0.0968671   0.2489740  -0.1025865
  -0.3446763   0.3175851  -0.0725977  -1.0430332  -0.0192978  -0.2047728
  -0.0511208   0.1277455   0.0877946  -0.5372152  -0.1882319   0.3653574
   0.2787159   0.5574916  -0.1243827  -0.1571586  -0.2731803   0.2493453
  -0.6763037  -1.5776369   1.0438797  -0.1861122   0.2858179   0.1816869
   0.0618210  -0.0532077   0.3342654  -0.1282564   0.0619929  -0.4758607
   0.3175380  -0.2178206   0.3532245   0.0074153  -0.0921025   0.1749322
  -0.0898529  -0.9762739  -0.6698305   0.1565696  -0.6314762  -0.8821532
   0.0096709  -0.0135235   0.1170925   0.0709702   0.5256121  -0.6469355
  -0.3459111  -0.2480724  -0.1188917   0.1978518   0.1675745   0.0571566
  -0.1712740  -0.2168790   0.3906174   0.2703169   0.2059619  -0.1684988
   0.0977850  -0.3448191   0.2707753  -1.4637700  -0.4156792   0.2076098
   0.8219793  -0.2994923   0.3375129   0.1940491  -0.3850775  -0.2510736
   0.0983839  -0.3398431  -0.4380145   0.0930369   0.2841150  -0.2489523
  -0.2081460  -0.0786616   0.1953131  -1.0262854  -0.0690855   0.3189685
  -0.3898219   0.2407206  -0.1650390   0.0507154   0.1441674   0.0205330
  -0.1865478   0.1014434   0.0851047   0.2160226   0.1671674   0.7741545
   0.0644836  -0.0286664  -0.0668988   0.0969421  -0.0251653  -0.0104217
  -0.0397445   0.1403728  -0.1313203  -0.0502792   0.2254609   0.0109061
   0.2233088  -0.3534301  -0.6252065  -0.2519812   0.6843372   0.0997212
   0.0002462   0.2147721   0.1470449  -0.2960506   0.3653075   0.2777938
  -0.3393487   0.1666120   0.4189183   0.2334140  -0.3282679  -0.4001421
   1.1431375   0.3840599  -0.1219742  -0.4896552   0.2365934  -0.3655654
  -0.0697439  -0.1273739   0.1595231  -0.0104413  -0.1983808   0.0425536
  -0.5413295  -0.0372642   0.4172772   0.1007556   0.1239001   0.1274570
   1.3872882   1.0700192   0.0944247   0.2589474  -0.2606229  -0.5607201
  -0.1817099   0.1589753   0.0795339  -1.6979330   0.2324193   0.6549823
  -0.0157669  -0.2955047   0.4828172   0.3536870   0.2432639  -0.0739712
   0.7391810   0.6623630  -1.5906249  -0.2196860  -1.1865631  -0.2215236
   0.0466066  -0.1918413   0.3473000   0.2412552  -1.0845749   0.5894632
   0.9606503   0.0618543   0.5270148   0.2940141   0.0693146  -0.2402613
   0.2506571   0.4315841   0.1073836   0.6437878   1.4195753   0.2123381
  -0.2142646   0.0374843   0.1583791  -0.2674271   0.4400879  -1.0432217
  -0.0393385   1.0504305   0.8880565   0.0926707  -0.0916111  -0.1133335
   0.6170161  -0.0736948  -0.5492948  -0.0379267   0.5553254  -0.5453105
  -0.2196786   0.1712624  -0.2158130  -0.5928677   0.7639720   0.0223812
  -0.9288038  -0.4533948  -0.1219005  -0.2993208  -0.2047630  -0.2271084
  -0.3783701  -0.5042927  -0.5843217  -0.1041160  -0.4827051   0.1558266
   0.0212481  -0.0285784  -0.0347176   0.2669849  -0.1181220   1.0270137
   0.8094709  -0.7268650  -0.4722867  -0.0126332  -0.1342942   0.0952250
  -0.5157322  -0.5092262  -0.5452685  -0.2565727   0.5945468  -0.1676364
  -0.0272107   0.3032237   0.0253527  -0.2101982   0.6358822  -0.0622207
   0.0252670   0.3581508  -0.3453293  -0.0880122  -0.1938668  -0.0718139
  -0.1064518  -0.4283116   0.0495544  -0.0954423  -0.3516873  -0.0516539
   0.1110897   0.2270223   0.0641072  -0.2460236   1.1491910   0.1611282
  -0.5609784  -0.4027446   0.0556733  -0.0659380   0.0124543  -0.0636482
  -0.3817195   0.8395686  -0.0756919   0.0050416  -0.1338494  -0.0641320
   0.1746877  -0.0889403   0.3820002  -0.2094233  -0.8336914  -0.0993096
   0.2268634  -0.8484036  -0.0024415  -0.2170618  -0.1122167   0.3180594
  -0.4469326  -0.2961267  -0.6167753   0.5124257  -0.2590236  -0.4437520
   0.1491041  -0.2419312  -0.2468300   1.1761096  -0.0287222  -0.2610342
  -0.6493213  -0.4310724   0.2219634   0.0248777   0.2253806  -0.0202545
   0.4666133  -0.6291570   0.2059799  -0.1250841   0.3536985   0.1687119
  -0.0106841  -0.1827212   0.0278735   0.6889063  -0.4935263  -0.1047244
  -0.0703085  -0.0692466  -1.1428110  -0.1692927  -0.3205240   0.1439139
  -0.0394478   0.0012463   0.2543990  -0.2850381  -0.1667820   0.5043704
  -0.2736348  -0.0355332  -0.0105920  -0.2266383  -0.0625382  -0.0024610
  -0.2531271   0.0106837  -0.0370981   0.1435876   0.3606472   0.0669307
  -0.0106293  -0.0096510   0.2155967  -0.5498416   1.1857082  -0.1426246
   0.0241035  -0.2634503   0.3382182  -0.0382650   0.6184046   0.1615710
  -0.0664287  -0.8403315   0.4015457   0.1157576  -0.0677954   0.1168729
  -0.0230400   0.0083661   0.0085551   0.1341048   0.0848885  -0.0935796
   0.0279982   0.1280955   0.1771625   1.1055932  -0.0549722   0.9986301
   0.4568046  -0.4492993  -1.1102957   0.3577491  -0.2865291  -0.0592086
   0.4352793  -0.0219171  -0.5883786   0.9089414  -0.8299621  -0.3697303
   0.3624979   0.0093023   0.4411363  -0.9566945   0.1218049   0.4647035
   0.5186419   0.4946007  -0.9163262   0.1876513  -0.0860520   0.1016794
  -0.2163402  -0.6282698  -0.0572761  -0.2076119   0.2398306   0.2257132
   0.0114301   0.0283333  -0.0683851   0.4546950   0.8873634  -0.5457856
  -1.2967310   0.0457630  -0.3089750   0.0367458   0.0387240   0.2616771
  -0.6873359  -0.1101560  -0.1849854  -0.8658323  -0.6271940  -0.3048899
   0.2247368   0.0253494   0.0231829   0.7301485   0.2567485  -0.5151082
   1.1136518  -0.1799537   1.0469381   0.0403056  -0.1958390   0.1460529
   0.0708806  -0.2055420   0.1025784  -0.3495150  -0.1928020   0.5820812
   0.1450553  -0.0693479  -0.2703119   0.1143117  -0.1419551  -1.3136102
  -0.2534950  -0.8159246   0.5315541   0.1330435  -0.2275242   0.2704564
  -0.1798977  -0.1194973   0.6422345  -0.0320851  -0.2327013   0.6236969
  -0.4202011   0.1000774   0.1139542   0.3218088  -0.6667223   1.5750237
  -0.1953436   0.1103017   0.0667297   0.1059070   0.0640191  -0.3322871
  -0.0225522   0.1528899  -0.5768461   0.2125860   0.3810566  -0.0334370
  -0.1620157  -0.1422284   0.4115614   0.0133750  -0.0514108   0.0115906
   0.8647255   0.1059117  -0.3193321   0.0517351  -0.2403961  -0.0770159
  -0.4473877  -0.7492228   0.1902822  -0.7318675  -0.9079959  -0.5123051
   0.1590647   0.3075721   0.4024180   0.1348472   0.1721056   0.3336134
   0.3158335   0.3117916   0.4213071  -0.2093635  -0.0557409  -0.0828397
   0.1713683  -0.0616677  -0.4325310  -0.0076412  -0.1699129   0.4609280
  -0.1224130  -0.2281870   0.2440184  -0.2591111   0.8304261  -0.9873914
  -0.4149844   0.4818168  -0.6779584   0.2750189   0.0467091  -0.0265431
   0.5149624  -0.0762798   0.8538622   0.4665505   0.8458401  -0.4315665
  -0.4364933  -0.0426964  -0.1351320  -0.4035879  -0.0082874   0.3577241
  -0.6776321  -0.0008915   0.0650827  -0.1716208  -0.4696332   0.1965021
  -0.0114492  -0.7214389  -0.0083212  -0.0030989  -0.9020957  -0.1326333
  -0.1150798   0.2255754  -0.0462986  -1.3889890   0.1947008   0.0317876
  -0.4790634   0.9068069   0.2432599   0.0874422   0.1837854  -0.1004940
  -0.0592566   0.1121794  -0.1378491  -0.5526224   0.5722211   0.0854396
  -0.3016877   0.1835673  -0.0662887  -0.4315410   0.5682035  -1.0581158
  -0.3626953  -0.0507466  -0.5908406   0.0933603   0.0646901   0.0434317
  -0.1930855  -0.0505022   0.3812678   0.6215559   0.6317929  -0.9974492
  -0.1183324   0.0005915  -0.3895697  -0.1034249   0.0805491  -0.6650675
  -0.0374885   0.0120561  -0.6807560   0.3089338  -0.2958100   0.0146118
  -0.0218868  -0.3012845   0.0010202   0.6338285   0.2344136   0.4460278
  -0.1119568   0.3330547  -0.0560514  -1.5136951   0.3696151  -1.2182455
   0.5616691  -0.0699429   0.0137005  -0.2705215   0.1060492  -0.0187688
   0.4138294  -0.3670718   0.7260432  -0.1863721  -0.4822674  -0.4509867
  -0.1489209   0.0052548   0.2478706   0.0322216  -0.0719004   0.0466439
   0.0505207  -0.3375828   0.1451362  -0.1340088   0.0776016  -0.2108472
  -0.0601988   0.1283441   1.0107339  -0.0565884   0.5415747   0.6764889
  -0.0240763  -0.0915865   0.0111620  -0.3736273  -0.0992586   1.0826431
   0.1284895  -1.3335774   0.9299526  -0.1640573  -0.2679518  -0.0768859
   0.8763556  -0.4024679  -0.3890244   0.1068074  -0.2832902   0.4346114
   0.4068815  -0.0703878  -0.0802506   0.6193260   0.2592016   0.0995516
   0.2986354   0.0293806  -0.0617622   0.0099817  -0.1421078   0.0757126
  -0.5527942  -0.0930967  -0.1344522   0.4651111  -0.2041680   0.2345850
   0.0880351  -0.2242703  -0.1348724   1.0077790   0.4384630  -0.3109901
  -0.1304856   0.8130582   0.7184376  -0.0176447  -0.1384493  -0.1869694
   0.8706693  -0.2643158   0.0060242   0.4676770  -0.6262888  -0.8296184
   0.0900773   0.2628753   0.2108770   0.4841760   1.0104312  -0.0442064
   0.0320713   0.2974742   0.2833141  -0.3281634   0.3202755   0.0272786
  -0.5272099   0.2307408  -0.4441078   0.8889692  -0.0730648   0.0832595
  -0.0754556   0.1664767  -0.2226706  -0.1711441   0.1558295  -0.0931750
   0.2830569  -0.0381449  -0.8569272  -0.1702727   0.2907781  -0.2775804
  -0.3836516  -0.8235351  -0.7428333  -0.2370177  -0.3809912   0.0239548
  -0.2371054   0.0576552   0.2286592  -0.2748455   0.1307588   0.2395908
  -0.0050327  -0.0697214   0.4438375  -0.2063140  -0.1707221   0.2342289
  -0.5530595  -0.9473364   0.0390391  -0.0213954  -0.1851684  -0.5836512
   0.0306418  -0.0961118  -0.1272457   0.2177468  -0.1920352   1.2017124
   1.1779029   1.4434221  -1.2490452   0.1625199  -0.1357624  -0.0498516
   0.9509761  -1.2438603   0.1042077   0.2247345   0.0419368  -0.1972429
  -0.2431369  -0.1644893   0.2004184  -0.0481441  -0.5346211  -0.0866904
  -0.3136040   0.5257296  -0.2293246  -0.1642360  -0.0284420  -0.1806085
   0.1473323   0.0680651  -0.1254140  -0.2583787  -0.1417151  -0.0312502
   0.1055835  -0.1773837  -0.1962755   0.2344122  -0.1306564  -0.0893281
   0.2745968  -0.4806423   0.6076112  -0.1268068   0.0231354   0.0053173
   0.3328939   0.0435245   0.5135796   0.2618743  -0.0971058   0.6356214
  -0.1572709   0.2264995  -0.0149130   0.0301007   0.8577931  -0.1614633
  -0.3407457  -0.3741158   0.5701801  -0.4427004   0.0531556   0.0918354
  -0.5785173  -0.6933569  -0.9393917   0.8538896   0.7060001  -0.0123904
   0.5022335  -0.0411936   0.0144046   0.4642303   0.2485803  -0.0995453
   0.8070784   0.3827526  -0.2365830   0.3553361  -0.0295291  -0.0382745
  -0.0314284   1.2112799   1.7434151   0.2810899  -0.8082876  -1.4928759
  -0.0501706  -0.0473864   0.0085092   0.5196331   0.6919814  -0.0813754
  -0.9194087   0.2842155  -0.1263241  -0.0650614   0.0407442  -0.2435684
  -0.4992072  -0.4169351  -0.9987719  -0.3420642  -0.7332407   0.6394184
   0.1815516   0.0483948  -0.1397933   0.0030016   0.2360551   0.6721550
   0.4762607   0.6273222   0.6016953   0.0119083   0.1656925   0.2135085
  -0.1947579  -0.2840431   0.1604452   0.4091362   1.1287112   0.3319555
  -0.0928640   0.3418766  -0.2403127  -0.3123577   0.1464006   0.2582549
   0.2294129   0.7763407  -1.0754114   0.1365492  -0.0580493   0.0890209
   0.3617979   0.6303540  -0.3076008   0.1949560  -0.4659258  -0.2074524
  -0.0553739  -0.0457454  -0.0238937  -0.5504220   0.5862257  -1.3602491
   0.2612623  -1.0878533  -0.6957191   0.0301215  -0.0041067  -0.0019363
   1.4864741  -1.2124894   0.1923786  -0.7547131  -0.3119346   0.5955845
   0.0210027  -0.3436891   0.0146714  -0.0059641   0.4241220   0.1200754
   0.5234996   0.3544683  -0.2519677  -0.1900322  -0.3232376   0.0602965
   0.6982300  -0.2431868  -0.5337931   1.1724416  -1.1638744  -0.2064173
  -0.3629063   0.2797466  -0.3126613  -0.0929207  -0.0311128  -0.4342983
  -0.6102821   0.7058565  -0.1918802   0.0341212   0.0195145  -0.1711505
   0.0633240   0.3762638  -0.3724123   0.2730066   0.1761514  -0.2535415
  -0.0315644  -0.0160885   0.1600532   0.0263693  -0.5250037   0.2502419
  -0.0504414   0.1414589   0.1107992  -0.1400060  -0.0473707   0.0691037
  -0.0780899   1.3564773   0.7798935  -0.6702525  -0.5578567  -0.2361162
  -0.3031821   0.1505643   0.0348715  -0.4261972  -0.6362715  -0.2569301
  -0.4362354   0.9877318   0.2277029   0.0764484   0.0313143  -0.0112035
  -0.1969793   0.4501855  -0.4108995  -0.1162993   0.7107834  -0.1718082
  -0.3802075  -0.3259304  -0.0331165  -0.1365681   0.4716444  -0.5071179
  -0.2405117  -1.1169344   0.7951058   0.0931155   0.0116960   0.0855410
  -0.7761445   0.5440768   0.4698120   0.6014811  -0.6487864  -0.7851022
  -0.0384291   0.3044546  -0.4097726   0.6889848   1.1488300  -1.1638096
  -1.0083130   0.6859588  -0.4945783  -0.0296529   0.2038198  -0.1304870
   0.2975465   0.1750649  -0.1001875   0.4709169   0.0630023   0.0900253
  -0.2581798   0.2010999   0.0154682  -0.0550824  -0.4115474  -0.2519467
   0.1738221  -1.2047942  -0.3596460   0.4103905  -0.2390328   0.0404194
   1.2636172  -0.3297357  -0.2336264  -0.1395329  -0.9493530  -0.8887904
  -0.0077377  -0.4266092  -0.3257673   0.1107462  -0.9115160   0.3187045
   0.2601512  -0.7580219  -0.2871686  -0.1886582   0.1694759   0.0660761
  -1.1073225  -0.2055517   0.0894278   0.0856813   0.1966702  -0.7324714
  -0.0147031  -0.2597993  -0.1182183   0.4867010   0.6359737  -0.1320965
   1.0909390   0.5445858  -0.2864633  -0.2146161  -0.0710064   0.1419745
   0.1240174  -0.1237538   0.4667124  -0.5956894  -0.3194194  -0.3855869
   0.1196130  -0.2584036   0.0449580  -0.5598399  -0.3653532   0.1305235
  -0.9213224   0.1077849   0.7342182   0.0063891  -0.1367741  -0.1642598
  -1.3476338   0.0848619   1.3634336  -0.5462967  -0.3192366   0.6496921
   0.2242600  -0.1532122   0.0546413   1.0551786  -0.8182026  -0.5531785
   0.3259868   0.8640427  -0.1237051   0.3807514   0.2582755   0.2488385
   0.1375240  -0.5591046   0.9263194  -0.1132871  -0.5236653   0.0780893
   0.0395468  -0.1741212   0.0400043  -0.5339367  -0.2786036  -0.3370626
   0.2209020  -0.5176358  -0.7328590   0.0222045   0.2288434  -0.0316957
   0.0793636  -0.6897206   0.5021807  -0.0909491  -0.6926212  -0.2311958
  -0.4215717  -0.0674358   0.3357612  -0.0962799  -0.7207604   0.2201524
   0.3692879   0.6200403   0.5296850  -0.0921281  -0.0466338  -0.0980234
  -0.4220214   0.1118758  -0.3044264  -1.3395158   0.0997909  -0.5178898
   0.0238139   0.2060186  -0.1582949   0.2384460  -1.3419346  -0.9329135
  -0.9157485   0.8196197  -0.7013959   0.3301795  -0.1964844   0.2887289
  -0.0538184  -0.1752644   0.4896460   1.0798980  -0.0647354  -0.2722422
  -0.0112728   0.1004723   0.0121169   0.7498188  -0.4865836  -0.1624132
  -0.3150116  -0.1954100  -0.0115226   0.0266728   0.1754611   0.3841026
   0.3190766   0.2308493   0.2564559   0.0013117  -0.2138581   0.5535611
  -0.2792519   0.1194733   0.1011561  -0.9001569   0.0855137  -0.5619105
  -0.4490305   0.1024463  -0.1661691  -0.1365628  -0.2104470   0.2451809
   0.2556260   0.3033105  -0.9503270  -1.0066323   0.6927427   0.8701317
  -0.1936241  -0.0413048   0.0557660   0.1325673  -0.1461633   0.0380407
   0.0173974   0.3273189   0.2587024  -0.0893696  -0.2894233   0.0435337
  -0.8289475   0.1869816   0.1642768  -0.8269613   0.5765225   0.0830959
   0.0019381  -0.2155584  -0.0666693   1.6326470  -0.5065372   0.4085772
  -1.3455946   0.4681153  -0.1368712   0.0658756  -0.2693804   0.3480945
   0.0431511   0.1282029   0.1409288  -0.6059982  -0.2986943   0.9656690
   0.0904676   0.0277745   0.0003038   0.2203163  -0.4627387   0.1013458
   0.3625956  -0.7161011  -0.0297549  -0.1073586   0.1392278  -0.1782054
  -1.1674425   0.0758045   0.5132837  -0.2644629  -1.7338399   0.2550274
  -0.1201803  -0.0130416   0.1522474   0.7670491  -0.0686753   0.7620874
   0.7383912  -0.2307461   0.3529346  -0.0491752  -0.0112763   0.0055480
  -0.9359046  -0.2554939   0.0308850   0.6615431  -0.3815620   0.2055053
   0.0707286   0.3039332   0.0004810   1.7683769   0.0867107   0.9487058
  -1.2713555  -1.0940178   0.8506756   0.0956298  -0.3157584  -0.2030895
   0.9016645  -0.3648988   0.7144087   0.0408823  -0.0286634  -0.6478832
  -0.2130141  -0.0683633  -0.2367904  -0.1450887   0.1104747  -0.1930281
  -1.3959525   0.6695855  -0.2994580   0.2183292  -0.0532680  -0.3013994
   0.9921247   0.3592588  -0.3503726   1.2388433   0.5233064  -0.4289808
  -0.1356834   0.3594829  -0.2810403   0.2572983   0.3683921  -1.1381327
  -0.3620118  -0.4337932  -0.1864124  -0.4783827  -0.0675295  -0.3293571
  -0.4435129   0.0962153   0.0225122  -0.4278963   0.0941918   0.0991137
  -0.1134425   0.1340295   0.2371745   0.1851692  -0.4874225   0.3056212
  -1.1074724  -0.4673290  -0.0021283   0.0363724   0.1284109   0.2027026
  -0.3043145   0.2525919   0.8271126   0.0576001   0.1362638   0.1986550
  -0.1163797   0.3187836  -0.0729292  -0.4043134   0.9530745   0.1033943
  -0.3781240  -0.5975674   0.4488903  -0.1592280   0.1313732   0.1934048
  -0.6368659   0.1097073   0.0622823  -0.2105747   0.1054823  -1.0817830
  -0.2304606  -0.0735621  -0.0392143   0.0709073  -0.0551536   0.1883180
   0.7465794  -0.6527254  -0.7191239   0.0218566   0.0390853  -0.1239636
  -0.3257841   0.2314804   0.3444705   0.5643527   0.0220905  -0.1286392
   0.1376366  -0.0802664  -0.3000899  -0.6151088   0.9604460  -0.0934040
  -0.3477526   0.3793985  -0.4131935   0.6008948   0.1748168  -0.1422276
   0.5871761   0.9547586   0.1354875   0.5821582  -1.1254223  -0.5336974
   0.0103877   0.2930841   0.1435801  -0.0787179  -0.3641360   0.1318312
   0.0197386   0.4788045   1.0923503  -0.1141551  -0.4594212  -0.2036841
   1.2690001  -0.5270626  -0.6844048  -0.6598143  -0.2209848  -1.1024145
  -0.0006352   0.2239639  -0.1738894   0.6871427   0.3280895  -0.4436866
  -1.1272605  -0.2074872   0.8737467  -0.1760681   0.0365910  -0.1574457
   0.6210157   0.4142387  -0.2556715   1.1808588   0.5280383  -0.8809760
  -0.1927610   0.3510506   0.1418893  -0.7592826   0.0942106  -0.1020253
  -1.6156076  -0.3715248  -0.3964917  -0.0851373   0.1040859  -0.0772002
   0.2187989   0.1428962  -0.0840482   0.5644429   0.2593152  -0.2079584
  -0.2280535   0.2005879  -0.0207141   0.0277458   0.3544015  -0.3046559
  -0.2311293   0.8107759  -0.4789921   0.0250506   0.1274061  -0.2088023
  -0.7080841  -0.7413609   0.4750353  -0.9579040   0.0137182  -0.6794133
   0.0294947   0.1476755   0.0508540  -0.5326141   0.2182630  -0.0922515
  -0.5504932   0.2511141  -0.1365952  -0.0818139   0.0774039  -0.1815860
  -0.4232109   0.2659884   0.2732335  -0.1313991   0.0891609  -0.1701182
  -0.3067394  -0.1065523  -0.3600284  -0.0140785   0.5795576  -0.7373773
  -0.0989189  -0.0048071   0.3753855   0.0142635  -0.2239041  -0.0198365
  -0.1809625  -0.0611827  -0.2507484   0.4136450  -0.1122558  -0.1163745
  -0.0359276   0.1442918   0.0031655  -0.0210376  -1.4459562  -0.9132452
  -0.3925739  -1.1170061  -0.9373672   0.1285755  -0.2343376   0.0600007
  -0.5704719   1.1526992  -0.1034739   0.0667278  -0.8676071  -1.3792841
  -0.0240600   0.1285534  -0.0852292  -0.8384059   0.2234685  -0.7710915
   1.2871021  -0.2672267  -0.5461413  -0.2185300   0.0759131   0.0211114
  -0.6116939  -0.6068775   0.4545096   0.2903091   0.3486813  -0.1016836
   0.1576321  -0.1367364  -0.3123746  -0.2718403  -0.3759981   0.6109278
   0.9619728   0.0014759   0.0543192   0.2109915  -0.3527481  -0.0867681
  -0.5702411   0.0442121  -0.0406051  -0.7173006   0.7915845  -1.0729470
  -0.2901008  -0.0842133   0.1830542  -1.0658371  -0.6708901   0.1721863
   0.4042662  -0.8865789   1.0668035  -0.1512411   0.1517747  -0.1939005
   0.0026529   0.6181505  -0.2496249  -0.2347374   0.0556775  -0.4218662
  -0.1446132   0.0277979   0.1021777   0.2262343   0.1122850  -0.8379404
  -0.7860638   0.7627251   0.0944189   0.0170217   0.0388613   0.2129518
   0.4312315   0.8866743   1.3353124  -0.7837020  -0.5370223   0.1927646
  -0.1561693   0.1978320   0.0272088   0.7101644   0.0764400   0.5452016
   0.9108084  -0.0892453   0.5380341  -0.1217649  -0.0007605   0.0669540
  -0.1898428   0.5390306  -0.2228541  -0.0829951   0.1891406   0.4833334
   0.0406907   0.2664501   0.4564830  -0.9611841  -0.2679589   0.5582918
   0.9174135   1.0661377   0.1557889   0.3243531  -0.1087748   0.1172740
   1.2363427  -0.6061471  -0.3456765   0.3039784   0.8157830   0.0778877
  -0.2108244   0.1542189  -0.1853708   0.0674076   0.7331497  -0.2903811
   0.4951334  -1.0339717  -1.1497633  -0.0811618  -0.0021462   0.2863939
  -0.6431636  -0.7301139  -1.3291165  -0.7926629   0.3861147   0.8141131
  -0.3164120  -0.0782402   0.1046664  -1.0120097  -0.0436055   0.3740585
   0.1682585  -0.1634992  -0.0056605  -0.1293579  -0.1081004  -0.0313355
  -0.0691246  -0.1762637   0.1189434  -0.2253995  -0.3394857   0.0784577
   0.2136482   0.0238968   0.0927780   0.3339210  -0.0974144  -0.0287910
  -0.3037924   0.5625456   0.8830315  -0.0461351   0.1920123  -0.2074251
  -0.5003265   0.3893927   0.5677129   0.9355724   0.2858656  -0.3094604
  -0.0474792   0.1144132  -0.1098336  -0.2731200   0.4783957  -0.3156242
  -0.1343899  -0.2944955  -0.3234950   0.1631365   0.0684519  -0.2456584
   0.2467338  -0.0898356  -0.4866873  -0.4425681   0.2194793  -0.0564016
   0.0833497  -0.2777009  -0.0973801  -0.1610830  -0.5795349   0.1884625
   0.2105975  -0.0236759  -0.4809302   0.3302899   0.1853132  -0.1502120
   0.9355393   1.2363061  -0.2052520  -0.8006655  -0.0283147   0.6271984
  -0.2630313   0.1283088   0.3016811  -0.9414096   0.5969370   1.0854359
   0.3353253  -0.9773827   0.2270231  -0.0118595  -0.4658573   0.0182420
  -0.0825944   0.2591086  -0.0615761  -0.1935102  -0.0700110  -1.0171489
  -0.5181477   0.0958486   0.0043791  -0.6267601   0.9782141  -1.1998075
   0.6381254  -0.2643450  -0.0561040   0.2799806   0.0554555  -0.0232010
  -0.0923967  -0.0894915   0.0296083   0.6348321   0.1342410  -0.6160925
  -0.1648143   0.3901879  -0.2640750  -0.4143168  -0.1872758   0.5651750
   0.1955845  -0.0878224  -0.2952963  -0.3338662   0.0927109  -0.0170560
   0.1936652   0.0077129   0.3828151  -0.4955864   0.5795389   0.4259170
  -0.2330673  -0.0857331   0.1827018   0.3734188  -0.4937203  -0.4396304
  -0.3273978  -0.3090165   0.3515742   0.0445694  -0.2135822   0.0183348
   0.5637191  -0.0738177   1.0573052  -0.0159440  -0.2044410  -0.0523647
  -0.0414073  -0.0315339  -0.2137726   0.6631153  -0.0255766   1.5206229
   0.2527896   0.0929568   0.3889492   0.2451580  -0.1406917   0.0276574
  -0.0926440  -0.1137467   0.3336866   0.1609189   0.8171034   0.9541337
  -0.1027993   0.0792858  -0.1494800  -0.7553370   0.4698938   0.1738694
  -0.4335416   0.5757404   0.2194114   0.0749775  -0.1530607   0.2781925
   0.0297304   0.6237244   0.6486268  -0.1285182  -0.2404634   1.2793842
  -0.0009987   0.1170405  -0.0767153   0.8404808   1.3651318  -1.1844959
   1.4663442  -0.1802598   1.1493721   0.1078379   0.1188769  -0.0021101
  -0.6549693   0.0078555   1.0369807   0.7046274   0.3988766  -0.5899245
   0.0381607  -0.0234244   0.0909085   0.0335939   0.0611071  -0.3257954
   0.1545592  -0.3808658  -0.0571530  -0.0863694  -0.2540788  -0.1490430
  -0.0320438   0.9548007   0.4219723  -0.0324007  -0.8441288   0.3658115
  -0.0156484  -0.1711917  -0.0815582  -0.2379336   0.4695455   0.1510862
  -0.9440178  -0.3854814  -0.3759539   0.1167696   0.2244273   0.2039448
  -0.0975587   0.4337607   0.2320218   0.0805315   1.0500857   0.0189785
   0.2732342   0.1245082   0.0748843   0.9941195  -0.5435429   0.7751221
  -0.2372072  -0.6699654  -0.5495502   0.3059660   0.0298511   0.1886941
   0.4854895  -1.0648362  -0.4699162  -1.4496273  -0.3329797   0.3728043
   0.1270346  -0.0176132  -0.1343341  -0.4147478  -0.3222179   0.0263106
   0.6270941  -0.8707719  -1.7563811  -0.0826106  -0.1170915   0.1039472
   0.1866697   0.9441811  -0.7703933  -0.4132774  -0.2517009  -0.0454531
  -0.3370165   0.0837373  -0.4314092   0.4531024   0.6754377  -0.4807834
  -0.1203513  -0.8996550  -0.8589637  -0.2566989   0.1406605   0.0673602
   0.0215265  -0.1272068  -0.7878270  -0.0021317   0.3057465  -0.1902502
   0.0488743   0.3731579   0.1108644   0.8797242   0.0005146   0.4215696
  -0.2663715   0.5645492   0.1056401  -0.1623560  -0.0055079  -0.2393862
  -0.1655655   0.8666879  -1.2186670  -1.2591337  -1.0240428  -0.7606329
  -0.1757919   0.1459901  -0.1688853  -0.4276322   0.3672320  -0.5178373
   0.4127610  -0.4496259   0.7728316   0.2455553   0.0744655  -0.2158341
   0.4254889  -0.2405879  -0.7249699  -1.1418838   0.2857070   0.2248999
   0.3851972   0.0969881  -0.0479016   0.3501333   0.1973678  -1.0451463
  -0.7500039   1.4954030  -0.6348374   0.1894155  -0.2654518   0.1723476
  -0.2795054   0.5312771   0.7286157   0.1030290  -0.9891020  -0.9510573
   0.1567967  -0.0927830   0.0828676  -0.2213882   0.8086074   0.6399155
   0.1731120   0.0000102   0.4553471   0.1719795   0.1442546  -0.3672349
  -0.4270674   0.4923453   0.9562045  -1.3298549  -0.7033980  -0.4547498
   0.1932972  -0.3661259  -0.0846818   0.2787996  -1.3374143   1.0193376
   1.2619804   1.3077671  -0.2812941  -0.1090613  -0.1164291   0.1073666
  -0.6942314  -0.5451134  -0.2586005  -0.5336450   0.1739766   0.4385903
   0.0907826  -0.3508850  -0.2330667   0.5066807   0.0252609  -0.4981941
  -0.2684962  -0.0256500  -0.2293114   0.0770447   0.0729640   0.1396517
  -0.4558902  -0.5892690   0.4778488   0.0396025  -0.0692545  -0.0230858
  -0.0287930   0.1785469   0.1029093  -0.4584704   0.6319110   0.3460031
   0.3358343   0.4303195  -0.2697161  -0.1875824  -0.0592425   0.0416822
  -0.5141862  -1.6915788   0.3841248   0.2323824   1.2626311  -0.5960853
  -0.0016371  -0.0453695   0.3892560  -0.2560299   0.4559233  -0.4840216
   0.0794267   0.2876223   0.2673301   0.0000696  -0.1180332  -0.2933290
  -0.3861860  -0.0103272   0.7590069   0.3398142  -0.6694559   0.0108132
   0.0349762   0.1269292   0.0993463   0.5225297   1.4744448  -0.9166181
   0.1443857   0.4285194  -0.1223605   0.1545661   0.0578702   0.2631774
   0.2580381   0.0057776   0.1105727  -0.3382763  -0.3540121  -0.5475628
   0.0485166  -0.0164519  -0.0175685   0.0008950   0.3368836  -0.1364775
   0.1218975   0.2352822   0.0372209  -0.0309030   0.0728070  -0.1967393
  -0.0494042   0.4718884   0.4807491   0.6919551  -0.6058105  -0.0294343
  -0.3646564   0.0953201   0.3787026  -0.4857477  -0.0218056   0.2389911
   0.2783519  -1.2488501   1.0044625  -0.1577257  -0.2092767   0.2991070
  -0.1591932  -1.1607073   0.4511428  -0.0313534  -0.3062035   0.0993817
  -0.0645590   0.4347430   0.0690852   0.8377986  -0.6028340   0.5354846
   0.3904010  -1.1669216  -0.1321476   0.0055863  -0.2516608   0.1951261
   0.9826369  -1.3376250   1.7009364  -0.6588281   0.9627197  -0.5069271
  -0.0993454  -0.2719183  -0.2410376  -0.1851076   0.7700362  -0.0275490
  -0.4979635   0.3728712  -0.8261222   0.1485466  -0.3920758  -0.1096017
  -0.0237486  -0.6979287   0.5639245   0.0318680  -0.2287580  -0.5711075
  -0.1315529  -0.0716258  -0.3430815  -0.9213211   0.4593280  -0.6970430
  -0.1324104  -0.1049609  -0.7724284  -0.1730944  -0.2178120  -0.3676706
  -0.1068434   0.1262537  -0.5027963   0.2037616   0.0393047  -0.3780961
  -0.1056456   0.1022873   0.0764865  -0.3060824   0.1565156  -0.1144186
   0.2708388  -0.1902771   0.3614093  -0.0400514   0.1340403   0.0195991
  -0.4080840  -0.3138106   0.5074370  -0.5130061   0.6009958   0.1596919
   0.2190075  -0.0411276   0.3696674   0.4115823  -0.0854166   0.8126417
  -0.0635011  -0.2186094   0.3811720  -0.0381301  -0.0695890  -0.2208582
  -1.1632313   0.4510767  -0.0711243  -0.1278985  -0.6822849   0.3817081
  -0.3881588   0.4669807   0.2959819  -0.9574552   1.1015707   0.3406882
  -0.1189647  -0.0847001   0.5526643  -0.0048379   0.1711891  -0.0421771
   0.5783031   0.0933474  -0.1933757   0.0817275   0.5552200  -0.2257219
   0.1003159  -0.0553144   0.2357677   0.0105093   0.0701692  -0.5325582
   0.5450444  -0.5268750   0.1089871   0.0403843  -0.1041973  -0.0495175
   0.1435917  -0.0516619  -0.3459273  -0.1899619  -0.0620989   0.3467160
   0.3068856   0.0625253   0.0032077  -0.3021800  -0.6688965  -0.0428900
  -0.3807086  -0.0694862   0.4224118   0.0276550  -0.0242337  -0.0769883
   0.3275269  -0.3269657   0.1820059   0.5131647   0.4626162  -0.0633349
   0.0741140  -0.2037050   0.3008500   0.0830148  -0.2472353   0.1424447
   0.2617742  -0.2195865   0.2588156   0.1082435   0.1291919  -0.2302649
   0.4726356   0.3882495  -0.6792113  -0.0452392   0.4769022   0.4346972
   0.0256289  -0.3096427  -0.2879873  -1.3631352   0.6198270  -0.0718706
  -0.7797709   0.4691090  -1.4124559   0.0118771  -0.3198866   0.2603590
  -0.6216572  -0.0121876  -0.0118139   0.7094056  -0.2106100  -0.0866439
   0.1315959  -0.0188905  -0.1446604   0.1885644   0.0089444  -0.0570866
   1.5327927  -0.9600100   1.0717192   0.0785513  -0.3440381  -0.0615887
   0.6939495  -0.4590548   1.3997466  -0.0448190  -0.2440719   1.3045935
  -0.2799552   0.1909918  -0.0036278  -0.7218886  -0.1719652  -0.9902416
   0.1119928  -0.1505600  -0.5868810   0.2846070  -0.1597892   0.0427911
  -1.2087700   0.3846593   0.0305799  -0.3213823   0.0397219  -0.3838604
  -0.1027452  -0.2962489   0.0463864   0.0102146   0.0549177   0.1647597
  -0.3802033  -0.4311954   0.2601375  -0.3025091  -0.0399076  -0.0997354
   0.1740135  -0.1976330   0.1380715   0.3521818   0.1690000  -0.7290416
  -0.1045231   0.2070898   0.0720308  -0.1623309  -0.6055633   0.2175876
  -0.4133875   0.2972914   0.2316216  -0.0670781   0.0602995  -0.2636696
   0.8226896  -0.9898817   0.1409229   0.7501720  -0.3282596  -0.5954910
  -0.2094746  -0.1326959  -0.0498507   0.3116869  -0.3217067  -0.7029489
   0.5493119   0.7544605   0.8121615  -0.0165885   0.0281985   0.1514465
  -0.0829766  -0.0984405   0.5486699  -0.3489641   0.3209103   0.2237281
   0.0787521  -0.0611473   0.1422178   0.7262754  -0.2914518  -0.0875425
   0.4059009   0.8369233  -0.7764649   0.0458762   0.2349377   0.2687619
   0.6407283  -0.1947270   1.0271417  -0.2320157  -0.5655573  -0.4399034
   0.0294770   0.0208125   0.3069448   1.0735791   0.0291629  -0.2234579
  -0.5835585   0.2994030  -0.4075528   0.1951677   0.2030797   0.1551794
  -0.0929624   0.0198955   0.1321176   0.9001939  -0.0097389   0.1299858
   0.0399230  -0.0827654   0.0072826  -0.8226237  -0.3044782  -0.5815872
   0.2451553   0.1201989   0.2426070   0.2969960   0.0053755  -0.0676779
   0.8867414   0.6737298  -0.1555641  -0.3226307  -0.9326602  -1.4018165
   0.2888947  -0.4502079   0.1207877  -0.9364615   0.1900184   1.2756944
   0.8387430  -0.5509042   0.7528088   0.1801682  -0.2474912  -0.2631228
   0.0154119  -0.1663544  -0.1076195   0.0091287   0.1935309   0.3934640
  -0.2005118   0.1358604   0.3088294  -0.7087239  -0.0236543   0.2123817
  -0.1830344   1.1331758   0.1443786   0.0527022   0.0404182  -0.2930867
   0.0845469  -0.1805033   0.1553529  -0.3977501  -0.0234108  -0.3939379
  -0.2972826  -0.0842829   0.2336213  -0.3167605  -0.8531484   0.9201983
   0.0363140  -0.4322437   0.2695139   0.0930502   0.0483944  -0.0382961
   0.2139576   0.9673848   0.3850239   1.5750626   1.1816647   0.4519447
  -0.2404176   0.0428997  -0.0705121   0.7355338   0.3804313   0.2979211
  -1.3174090   1.0297535   0.3066587  -0.2456118   0.3392998  -0.0478677
   0.4220575  -0.1304877  -0.3577688  -0.3919171   0.4962130  -0.0490952
   0.2753376   0.1486023   0.4956204   0.2496333   0.1110103  -0.1817155
  -0.1814537   0.1036454  -0.0192641  -0.2162633   0.3991571   0.0895223
   0.5516695   0.5885802  -0.3876604  -0.3028507   1.2781516   0.4636594
   0.3054100   0.2248313  -0.2927703  -0.0758849   0.0202517  -0.9497920
  -0.1884438   0.1927104   0.3053019   0.2187836   0.0891921  -0.2597631
   0.3242133   0.0591342  -0.0056436   0.2999303   0.2842903   0.8721470
  -0.2430639  -0.0717227  -0.2007755  -0.1537135   0.0624587  -0.2321932
   0.9672586   0.8554356   0.2786181   0.0450652   0.0678383  -0.1275537
  -0.6363206  -0.2228318  -0.6762724   0.3290597  -0.1778134   0.4692740
   0.0233474  -0.3170001  -0.3078026  -0.2337325  -1.5263196  -0.4316676
  -0.9337897   0.0943969   0.4841856   0.3764073  -0.4460668   0.3841533
   0.4776540  -0.7658943  -0.0656456  -0.1060960  -0.7441059   0.6605560
  -0.1103420  -0.1949296  -0.1818520  -0.3103314  -0.5345283   0.4739251
  -1.4260298  -0.6514076   0.9335682   0.1550594  -0.2488287   0.1530799
  -0.0164022  -0.9240924   0.9532911   0.6529212  -0.6938490  -0.6979924
   0.4169639   0.0206588  -0.3385180   0.5279183   0.7474220  -0.2037445
  -0.4049322  -0.2193517  -0.0491218  -0.2445153  -0.0822814   0.1858626
   0.4293240  -0.5221591  -0.1810382   0.2681402   0.0570965  -0.4203453
   0.2472426   0.1003575   0.2820889   0.3553790  -0.7027693   0.8836184
  -0.0808146  -0.4533198  -0.2383073  -0.1525686  -0.3870613  -0.0452484
  -0.0308279  -0.2611787   0.1414375   0.2726684  -0.1611520   1.3862966
   0.0328299   0.0972258  -0.1472249   0.2970627   0.2273933  -0.2443428
   0.2716699   0.3792766   0.0784250  -0.2160867  -0.2818214  -0.0133478
  -0.1837538  -0.9522183  -0.5692469  -0.6702262  -0.0978254   0.1211496
   0.0387428   0.0621986   0.1184632   0.2184964   0.2753194  -0.1453171
   0.3002897   0.4648132  -0.1966807  -0.1058625   0.0756982  -0.0947715
  -0.6105368  -0.0850062  -0.6071982  -0.2212805  -0.2295988  -0.3601765
  -0.2017996  -0.0852794  -0.2408059  -0.0865798  -0.0124761  -0.0745055
  -0.1797805  -0.0071457  -0.0501759  -0.1840893   0.1173088   0.2378287
   0.1526663   0.6577801   0.5113385   0.7904594   1.4107858   0.3076277
   0.2099347  -0.1407058   0.2785266   0.3320968   0.4742037   0.0001837
   0.2619539  -0.7016778  -0.0500183   0.1840126   0.0150101   0.1331063
   0.0266614   0.4286056   0.6614433   0.0195171  -0.3303504  -0.3079587
  -0.1110136   0.2919039  -0.1419148  -0.6337826  -0.0603105  -0.7909227
   0.2812017  -0.3197420   0.9449535  -0.1018244  -0.2494093  -0.1133393
   0.2300984  -0.3729022  -0.4806213   0.2739908  -0.2793282  -0.3889162
  -0.0018315   0.2586271   0.0000517  -0.3608579   0.1551094  -0.5551356
  -0.1606318  -0.2341736  -0.2642281  -0.0662381   0.0323414   0.1065258
   0.5320454  -0.1671413   0.9899220  -0.5311039  -0.8986550  -1.0922742
   0.1151870   0.0461391  -0.2517968   0.0205164  -0.5873853  -1.4520172
  -0.8289047   0.4678970   1.5420637   0.1209835  -0.2332472  -0.4207958
  -0.2040152  -0.9031962   0.1477114  -0.0709659  -0.3709664  -0.2770005
  -0.2563741  -0.1933435   0.0725543  -0.4984044  -0.4837104  -0.3797206
   0.2842306  -0.2726281  -0.1169859  -0.0404966   0.0654051   0.0501438
   0.2285835  -0.4630516  -0.1660127  -0.3969483   0.2632926  -0.3796442
   0.0039943   0.0212200  -0.1388789   0.0249438   0.6537060  -0.1339663
   0.0303145  -0.3039173   0.0881792   0.1986369   0.3363585  -0.2694984
   1.0558508   0.3675494  -0.0579071   0.3364986   0.1888695  -0.2789239
   0.1732476   0.1267378   0.0020634  -0.3640999  -0.1255392   0.0243932
   0.7320055   0.0358190   0.2786978  -0.0794632   0.0211338  -0.1513942
   0.3308049   0.5715898  -0.6187363   0.0316019   0.0483753   0.4611193
   0.3371705   0.0499314   0.2806803   1.8708146   0.4827022  -0.0004242
  -1.5113552  -0.7939827   0.4627771   0.0294297  -0.0758282   0.3220377
   0.4370106   0.0184819   0.1395457   0.3373343  -0.6504518  -0.6970509
   0.2387200   0.0565190   0.1228530   0.8292112  -0.0385309   0.0010812
  -0.5130308  -0.5613636   0.6137069  -0.2087999   0.0989419  -0.1076880
   0.8736742  -0.6104436   1.2572032  -0.0364817  -0.6945812   1.1376523
  -0.3512836  -0.2367807   0.2017668   1.4763808  -0.3935044   0.0328664
  -0.0454315   0.0280938   0.3307325   0.0763009   0.1044943   0.0503621
   0.1934449  -0.5681541   0.5109610  -0.8131146  -0.1905158  -0.2770560
  -0.3467990  -0.0012255   0.0367440   0.0681282   0.3087038   0.3395191
  -0.4139733  -1.0554517   0.5316024   0.1216909  -0.0923403   0.0040959
   0.0830017  -0.2375457   0.1220310  -0.0030374  -0.0687683  -0.1523340
  -0.4592313   0.0057157  -0.1233063  -0.1821159  -0.2386575  -1.3542118
  -0.1063669  -0.1872567  -0.4649493  -0.3162243   0.1086548  -0.0587052
  -1.0420401   0.1041434   1.3935929   0.0964113   0.1292526  -0.5465500
  -0.1409933   0.2871026  -0.0861279   0.7446073   0.7792507   0.1730048
  -0.7153347  -0.0288394  -0.2549836   0.3763659   0.3759875  -0.2107751
   1.2657233  -0.6414655   0.4448785   0.4567099  -1.0024536  -1.0457745
   0.0405825   0.0325553  -0.3738277  -0.1833551  -0.5405484   0.6969222
  -0.6362646  -0.6523974  -0.0666866  -0.2008518  -0.2466993  -0.0987100
  -0.2947799  -0.8914001  -0.0705350  -0.4742570  -0.7238178   0.0816242
  -0.1038205   0.1853818  -0.0414929  -0.0112119   1.5745671   0.5235245
  -0.1523192  -0.5889525  -0.3999218  -0.0386508   0.2670750  -0.1214634
   0.5368064   0.0834633  -0.5339167  -0.6185262   0.2978215  -0.5878562
   0.2207908   0.1048208   0.0719380  -0.0249856  -0.2129539   0.1797209
   0.8528104   0.7004692   0.3163165   0.1049215  -0.5737024   0.0509848
  -0.2993149  -1.5496369   0.0338307   0.6031808   0.3552419  -0.0611712
   0.2154687   0.2152431  -0.2027386  -0.4671057   0.5845779  -0.1291095
   0.6622628   0.0258111  -0.1653505  -0.0812267  -0.0972062   0.0308210
  -0.0361728  -0.3421262  -0.0496501   0.3898653   0.6960698  -0.0871233
  -0.1220858  -0.0402417   0.3399004   0.1403434  -0.0774283   0.0846094
   0.1808531  -0.2218827   0.1608779  -0.0209450  -0.0614788   0.0642596
   0.4415166   0.4811072   0.9899902   1.1730716  -0.5956967  -0.1864849
   0.0055617  -0.0866023  -0.4593740   1.2059976   0.7740126   0.9134439
  -0.1225637  -0.0079028   0.0882310   0.2709121   0.2341297  -0.1433416
  -0.9573784  -1.4611342   0.9190725   0.0815547   0.0283459   0.4786262
   0.0182102  -0.0369969  -0.3537131   0.4589238  -0.2690502  -0.2176182
  -0.3175155  -0.2627416   0.0292888   0.0569518   0.2990651   0.0793675
   0.4259240   0.6067831  -0.6150241  -0.0718724   0.8593232   0.4431939
  -0.2756830  -0.2362219  -0.1001342   0.4751573  -0.6670055  -0.9953381
  -1.2495546   0.1257043  -0.4106038   0.1246753  -0.0409179  -0.0107187
  -0.3946383  -0.4750390   0.6742354   0.1049794  -0.0121344  -0.3630810
   0.1440292  -0.2290421  -0.2796340  -0.4766644  -1.3494018  -0.9098687
  -0.0923888  -0.5672466   0.4322768  -0.0358208   0.2657605   0.0836990
   0.5948953  -0.3558150   0.0442055  -0.1199807   0.3404368   0.0160785
   0.2256720  -0.1608432   0.2239863  -1.0053832   0.7879226  -0.4259997
  -0.1712931  -0.6298294   0.4095131  -0.0045417  -0.0928806  -0.0199803
  -0.0983534   0.0865617   0.1703176   0.2248202  -0.0779687   0.0950248
  -0.0365449   0.1393143  -0.1297069  -0.6214733   0.4388054   0.8051685
   0.1481795   0.0475291  -0.4772647   0.0950969   0.0322334   0.0792050
   0.4727999   0.3567960   0.6850846   0.2107277   0.4382534  -0.4307577
  -0.0648038  -0.0220108   0.0428607  -0.3340458   0.0667372   0.0536887
   0.0032956  -0.0694429   0.2801378  -0.2104223  -0.3088921  -0.4266886
  -1.0061830  -0.7397760   0.3330969  -0.2775478  -0.2667158  -0.0360595
   0.1522671  -0.3172588   0.2355758  -0.3271262  -0.4200296   0.8325325
  -0.5647392  -0.0403842   0.0621583   0.3960537  -0.0849518   0.1306426
  -0.0977268  -0.5784503  -1.4618992   0.3676798  -1.4421473   0.5199194
  -0.0994572   0.3258129  -0.1131031  -0.5159398   0.1793580  -0.6553211
   0.4213556  -0.0783652   0.4009829  -0.0048898  -0.0913803  -0.1319737
  -0.1403472  -0.0274818   0.0969411   0.1437775  -0.4511712  -0.0782637
   0.0705394   0.0624262   0.2376911  -0.0155743   0.1610646   1.3488362
  -0.3905874  -0.6429285  -0.0799499  -0.1202437  -0.2472968   0.2173824
   0.4665434  -1.5112135   0.5712923  -0.7053727  -0.7086927  -0.9425753
   0.2574531   0.1367962  -0.0217312  -1.1327256   0.2111696  -0.4333442
   0.0352897   0.3154353   0.2219483   0.1777777  -0.0948319   0.1290852
  -1.3619476  -0.0695450  -0.0628898   0.6245171  -0.5304835  -0.1940043
   0.0412450   0.1399335  -0.2076877   0.7048415   0.9700536   0.3890352
   0.2213362  -0.8104572  -0.9463987   0.0416436   0.4179533   0.2123890
   1.8095803  -1.0526070   0.1656861  -0.0053075  -0.4764940   0.0611070
   0.0157211  -0.2458104  -0.3942036  -0.1512726  -1.4646054  -0.1459629
  -0.4086986   0.1792578  -0.7136628   0.0273583   0.1901937   0.1122259
   0.3680370  -1.5303519  -1.0589675  -0.4528820   0.1001449  -0.4528118
   0.3597508   0.2404652  -0.1089479  -0.4688331  -0.2463326   0.0105850
   0.0057289   0.2436358  -0.1653772  -0.0138743  -0.1249340   0.1032154
  -0.2599348  -1.3500986   1.7499135  -0.9969470  -0.0775331  -0.2831119
  -0.1311849   0.0477556  -0.0891077   0.0133087   0.5875984  -0.1578017
  -0.5703942  -0.0539049  -0.4411575  -0.2366067  -0.3741722   0.0634029
  -0.6966416   0.0389458   0.1354353   0.8722742  -0.9486417   0.1942967
  -0.0487594   0.2413789   0.1195892   0.2957301   0.9508581  -0.4196892
   0.0046155  -1.4340804   1.1194338  -0.0860335   0.0479107   0.0420261
  -0.4686108   0.0847259   0.7129501  -0.3008549   0.1917825  -1.9340861
  -0.1154555  -0.1325140  -0.0383203   0.2918541  -0.0668395  -1.0811946
  -0.8324701   0.5839189  -0.0695216   0.3399490   0.3188296  -0.3308094
  -0.7709211   0.4547001  -0.8245319   0.9536807   0.5565142   0.2334244
   0.0903834  -0.4050117  -0.1583220  -2.3719943   0.0069956   0.2905143
  -0.5848455  -0.3225499  -0.5332009  -0.1052921  -0.1992060   0.1792871
  -0.6035628  -1.2544033   0.7069845  -0.7712334  -0.2616708  -0.0637504
   0.0719936   0.0795629   0.0061582  -0.2956626   0.5968466  -0.2521134
  -0.3184188  -0.5130641  -0.0519331  -0.0606415  -0.0633760  -0.1450730
  -0.2638980   0.4454090  -0.3461413  -0.5027106  -0.5331244  -0.2615942
   0.0225298  -0.1620480  -0.1970787   0.0783333  -0.0025333  -1.6666688
   0.3763853   0.8612625  -0.2524875  -0.0533761   0.0638371  -0.1178020
  -0.5070972  -0.4659290  -0.4329971   0.0938011   0.5913552  -0.6721721
   0.1498383  -0.3128406  -0.1381587  -1.6352508   0.3456389   0.1890744
  -0.5099198   1.2974179  -0.7567631   0.1553222   0.0748886  -0.1434849
   0.8676451   0.9748850  -1.0584662  -0.7316510  -0.1126914   0.6834694
   0.2643062  -0.1788920  -0.1707870  -0.2171597   0.1455508  -0.1224725
   0.1352799   0.2675750  -0.2560441   0.0386759   0.1858254  -0.3361130
  -0.0610427   1.7849332   0.1611679   0.0575512  -0.2388523  -0.0833402
   0.2426013   0.0119358   0.2691311  -0.2975653   0.2801797   0.6315096
   0.4661026   0.1438555   0.0875524  -0.0429584   0.2059935   0.2354988
   0.2939559  -0.3933062  -0.1826519  -0.7195242   0.1429268   0.1183478
   0.0015396  -0.0308304   0.0238070   1.1118259  -0.2703388  -0.2226013
  -0.4336408  -1.1276566  -0.2274574  -0.0720619   0.0212295   0.0211232
   0.0811003  -0.0973039  -0.1113329   0.5839040  -0.4049976  -0.5782968
  -0.2911713  -0.1060061   0.2782005  -1.0904464  -0.0839866  -0.8963699
  -0.5582555   0.0233091  -0.3072352  -0.2220084  -0.1012382   0.0494392
  -0.6734664  -0.0803964   0.1699209  -0.9761250  -0.1337762   0.0709809
  -0.0733252   0.0116426   0.1525273   0.1047220  -1.1852279   0.5052149
  -0.3703346   0.2872313  -1.0706139   0.0676403  -0.1623639   0.1207229
  -0.3564878  -0.4088635   0.0793046   0.1030228  -0.6866744   0.3487176
  -0.0649456   0.0848199   0.1937790   0.7395277  -0.2577753   0.0201456
  -0.7714521   0.9131456   0.0870352   0.2340785   0.1626194  -0.0593731
   0.2362026   0.1658272   0.1398443   0.2719393   0.2010857  -0.0999579
  -0.1263025  -0.2299138  -0.1992223   1.2246556   0.3780405  -0.8128528
   0.1833790   0.0087019  -0.1037682   0.3440164  -0.1439138  -0.2389429
   0.3882926  -0.0992820  -0.4069353   0.3394202  -0.0876945  -0.6988783
  -0.2253711  -0.0285480  -0.1340655   0.1070995   0.1545039  -0.2528069
   0.6572533   0.1536974  -0.0509944  -0.3518947  -0.1863292   0.0211349
  -1.0247386   1.2137532  -0.4621363  -0.1781840  -0.6032314   0.6123626
  -0.1782127  -0.3802466  -0.0693446  -0.0976794   0.9424246  -1.0390234
  -0.4135685  -1.0593005   0.4928294  -0.1160448   0.0385519   0.1492034
   0.3024706   1.1298499  -0.3125846   0.0569561   0.4809113   0.1504836
  -0.1449039   0.0202759  -0.4175729   0.7842866   0.7262072   0.1295529
   0.8031495   0.3198154   0.2372697   0.1005043  -0.0250805  -0.1193751
  -0.2648182  -0.0324573  -1.2126977   0.0438666  -0.8948798   0.0889947
  -0.0475457  -0.2668914  -0.0596097  -1.0915662  -0.0203078  -0.2224574
  -0.0412882  -0.0364498   0.7159886   0.1189844  -0.1822127  -0.1920213
   0.1788925  -0.2471353  -0.5168218   0.3567442   0.0517585   0.1618550
  -0.3094879   0.0957050   0.1045395   0.0602825  -0.7148117  -0.2133407
   0.2674461   0.8520056   0.2437584   0.1048757  -0.0177484   0.1084886
  -1.2165806  -0.0361343   1.1495923   0.7786635  -0.3495520   0.3038241
   0.2096771   0.1937085  -0.0142989   0.2109444   0.2531976  -1.2149204
   1.2018965   0.2018094   0.7949795  -0.1255332   0.1601639   0.3141843
   0.6293286  -0.3400756  -0.8002790  -0.7737185   0.4345020   0.8261258
  -0.1116304  -0.0403366  -0.0597355  -0.1054708  -0.0505096  -0.4595074
   0.1748692   0.0458892  -0.1299372  -0.0868633   0.1871051  -0.0431501
   0.4337400  -0.8961617   0.2395446  -1.1911747   0.0350325   0.7576020
   0.1904655   0.2453358   0.2958520  -1.9053491  -0.5052063  -0.2002475
  -0.4379977  -0.0891619   0.3924733   0.0944207   0.1215913  -0.0927411
   0.0895242  -0.0603596  -0.0947657   0.1850750   0.1241194  -0.3735624
  -0.2234973   0.2240082  -0.4119860  -0.2771634   0.2111625  -0.3512470
  -0.2384559   0.3089182  -0.4240872   0.1978786  -0.0160491   0.1367376
  -0.5121570   0.2302907   0.7611205  -0.1478354   0.1173826  -0.7760590
  -0.2077976  -0.0287772   0.3153210   0.7761886   0.0177640  -0.1194625
  -1.4775606   0.8316559   1.4197594   0.2905263   0.3110224   0.2083795
   0.3590867   0.6763485   0.5905565  -0.1954670   0.8586920  -0.6361842
   0.2142759  -0.3264817  -0.3131598   0.6358127  -0.9398365   0.3444862
   1.1365951  -0.5440556  -0.2274776   0.2518818  -0.0597442   0.0387309
  -0.2652200  -0.5988893   0.1843082  -0.4430809   0.4945574  -0.0937960
  -0.1770911  -0.0832077   0.1198794  -1.1181131   0.0238876  -0.2031499
   0.2492370  -0.1110415   0.7165976   0.0807983   0.2047433   0.0209014
   0.1010165   0.2759843   0.4681632  -0.4728534  -0.3162236  -0.0668339
  -0.0369794   0.0861321  -0.1414981   0.6645481  -0.1139898   0.9556234
   0.4955584  -0.6527289  -0.4716561  -0.0987951   0.0804338   0.0325118
  -0.3715369   0.1023831  -0.3235323  -0.4773994   0.2245852   0.0905990
   0.0991061   0.2711728   0.0252678  -0.7151789   0.1330666   0.4598139
   0.4382678  -0.2497071   0.2454341   0.1238788   0.3720472  -0.0922861
  -0.4207048   1.4376681  -0.6428060  -0.0594033   0.8263624  -0.7630294
  -0.0439055  -0.3052278  -0.2854455  -0.3030485   0.4217545   0.7402703
  -0.2575414  -0.1092651  -0.2284264   0.2187163  -0.3284069  -0.0087516
  -0.2028901   0.0228654  -0.1650487  -0.4895172   0.5615069  -0.3963098
   0.2029840  -0.1102669   0.3881935  -0.5794965   0.0652017   1.3168322
   0.1684361  -0.0948908   0.4594416  -0.5388485  -0.2351683   0.4839486
   0.3303354  -0.2178851   0.8704976   0.8268552   0.4253917  -1.1204960
  -0.1020067  -0.2134796  -0.1892554   0.4736099  -0.0562395   0.0811662
  -0.4460019  -0.2503195   0.2692576  -0.1899320  -0.0061916  -0.0651034
  -0.3056539   0.3843865  -0.1597183  -1.2444617  -0.9269373  -0.5956863
   0.0080634  -0.2799603   0.0693558  -0.3164934   0.4045992   0.1383076
   0.0818346  -0.4425484   0.0609653   0.0177603   0.3122535   0.0318592
   0.2351372  -0.0530917  -0.1099522   0.3206726   0.4442184  -0.1878212
  -0.3116219  -0.0972472   0.1227571  -0.3112791   0.6432473   0.1841829
  -1.2103381   0.5858573   0.2093422  -0.1399242  -0.0536489  -0.0323421
   0.3934141  -0.9472990  -0.2748060   1.6858199  -0.1539248   0.0266666
  -0.1681562   0.1616149   0.0911318   0.0485823  -0.0168704  -0.6656483
  -0.1361551   0.1317427   0.0969071   0.1091374   0.1524082   0.2590340
  -0.0545332   0.2386384   1.0542265   1.0831512   0.0538362  -0.1848764
   0.0851363  -0.1167963   0.0440909  -0.2323040  -0.4513118  -1.0381912
   0.8713904   0.1905532   0.6334940   0.2159797   0.0551261  -0.0067731
  -0.1755091  -1.1946021   0.2410219   0.2407988  -0.3142518   0.1794070
  -0.3462610   0.1023807   0.0854759   0.7653800   0.1677398  -0.0534057
  -0.5767063   0.1339027   0.1301928   0.2196856  -0.2322031  -0.1479815
  -1.6858887   0.2190928  -0.3720189  -0.1494150  -0.0496476  -0.1040492
   0.4616320   0.1397564   0.0695225   0.6053762   0.3690163   0.2861438
  -0.0555166  -0.3591157  -0.6817940   0.1233452  -0.1908290  -0.0102674
   0.2175485  -0.3331063   0.2846541   0.0829447   0.6002373  -0.4257871
   0.0734528   0.0784626  -0.1040729   0.7626257  -0.0179599  -0.7882118
   0.6470549   1.4070028   0.0920743  -0.0897695   0.0438165  -0.3597463
   0.3937633   1.1071061  -0.4653038   0.3013522  -0.8297957  -0.6767707
   0.0821954  -0.0014031   0.1149255  -1.1730133  -1.1449517   0.6487800
  -0.5830201  -0.7338888   0.2057091   0.0859243   0.1522946   0.2370660
  -0.3658423   0.0544887   0.5180154  -0.3090046   0.6907511  -0.5970719
  -0.0036511  -0.2374155  -0.0900988   0.1397216  -0.5967360   0.5230238
  -0.4886507  -0.2948910  -0.3066271   0.0388930   0.0163646  -0.0137167
  -0.6265912  -0.6047255  -0.7847716  -0.1453138  -0.6122037  -0.6985164
   0.0820973  -0.0757325  -0.2845123   1.9675565   0.4248085  -0.4655903
  -0.3398864   1.1416325  -0.0196646   0.3831321  -0.0643281   0.2994103
  -0.5222083  -0.4431847  -0.1198176  -0.3302539  -0.4765870   0.0612366
  -0.0510997   0.1858655   0.0434730   0.4936200  -0.5932787   0.5235706
   0.4447404  -0.7519202  -0.9473106   0.0796380   0.3329499  -0.0225033
   0.2042485   0.3503991  -0.0182435  -0.1944315   0.1693203   1.1567034
   0.0993107  -0.0826964   0.0285711   0.2381256   0.1268649  -0.3939495
   0.4424126  -0.2009925  -0.3687184   0.2352455   0.1472872   0.4051008
   0.1336397   0.1191019   0.7173310   0.5058493   0.1396985  -0.2579552
   0.0516867  -0.0867636  -0.3380675   0.0633391  -0.1769245  -0.2105608
   0.4655945   1.0230268  -0.5577459   0.1245369  -0.4993631   0.3098706
   0.7624043  -0.0755209   0.2585873   0.2769817  -1.7076540   1.3570213
  -0.1726841   0.0592834  -0.0679123  -0.4589123  -0.3737360  -0.8268472
  -0.0865033   0.0230604  -0.0630533  -0.1327413  -0.2334566  -0.0801943
  -0.8018728  -0.3639068  -1.1201146   0.2430028   1.6375074   0.5986174
  -0.2814739   0.0999507   0.0528387   0.4678038  -1.6152976   0.2332777
  -0.2293366   0.6251399   0.7842152  -0.1747446  -0.0012836   0.1160652
   0.4954188  -0.2088154  -0.1573951  -0.7476079   0.6257330  -0.5630092
   0.0341094   0.2322584  -0.3035436   0.6980782  -0.0119476   0.0489429
   0.5739071   0.0424435  -0.0199339  -0.0643524  -0.2322283   0.1671957
   0.2917884  -0.7598725  -0.1402613  -0.3168337  -0.0736775  -0.1497591
   0.0256084   0.0753381   0.1348737  -0.0595949   0.7426311   0.2169246
  -0.3162376  -0.4948840   0.6936293  -0.3912477   0.0893675   0.0893588
   0.5683896   0.9211077   0.1397491  -0.8945854   0.1238315   0.2483246
   0.2127315   0.0692155  -0.2287475   1.0832089  -0.2517318   0.5863514
   0.0008438   0.0146591  -0.4454827  -0.0050990  -0.4798865   0.3609093
   0.3260075  -0.3157362   0.3692648  -0.4924535  -0.9668410  -0.0405137
   0.1341195  -0.2098881   0.0806687  -1.5116167   0.2475072   0.7289549
  -0.8434276   0.1394134   0.8243261   0.0278284  -0.2871139   0.0775794
   1.2190353  -0.0645712  -0.3212291  -0.6247640   0.4647651  -0.7015656
   0.3897286   0.2367962  -0.2480712   0.5627139  -0.2478610  -0.0963612
  -0.0556832  -0.1333135   0.0217700   0.1931072   0.0865220   0.0826720
   0.2053408   0.1270726  -0.8660095   0.7078608   0.8794467  -0.0675101
   0.1091847   0.1443244   0.0314374   0.0341379  -0.3523500  -0.3331385
  -0.1902953   0.4526919  -1.1140997   0.2745926   0.0991152  -0.0603538
  -0.5404304   0.4927444  -0.0805853   0.2717638  -0.5117878   0.0777443
  -0.2562686  -0.4912831  -0.2848139   0.5950204  -0.7538851  -0.7065776
  -0.5137917  -1.1192277   0.5213511   0.3498899   0.1804617   0.0267624
  -0.2589162  -0.7306422  -0.2741008   0.0450800  -0.5339660  -0.2535559
   0.1198648  -0.0216553  -0.3622797  -0.2522985   0.0222886   0.0766505
  -0.1175292   0.0203999  -0.1257174   0.0834639  -0.3585767  -0.1004495
   0.2256306  -0.3889978  -0.1584051  -0.5186261  -0.2532818  -0.4902445
   0.0091186   0.0520643  -0.0652791   0.1196366  -0.0878862   0.3943207
   0.1461434  -0.1673047   0.2073559   0.0021374  -0.4600039  -0.1044900
  -0.5703938   0.5257083  -0.7924153   0.4637360  -1.2534333   0.5917442
   0.1533609  -0.0741632  -0.0293784   1.0712121   0.2720879  -0.3224285
  -0.4557173   0.3232474  -0.6149730  -0.3896707   0.2316397   0.2388919
  -1.0317017   1.2677268   0.4696124  -1.1831424  -0.6531109   0.2519527
  -0.1528674  -0.1334079   0.0061915   0.4551503  -0.0181057   0.5882800
   0.1729927   1.1106791   0.5413069  -0.0713322  -0.2753661  -0.1964131
   0.4070824  -0.2177090  -1.1226397  -0.2984171  -0.9502123  -0.3392384
  -0.4880552   0.0247234   0.0915478  -0.5562501  -0.0592359   0.0846828
  -0.5457076   0.2965144   0.0049822   0.0896487   0.2089981   0.3705919
   0.5331280  -0.1482881  -0.1257576   1.0877548  -0.0083359  -0.4587252
   0.0281716  -0.0073973   0.0022856   1.2220716  -0.4825561   0.2494001
   0.9966281  -0.2915883   0.2411629  -0.2246079   0.0363071   0.0986187
   0.0246026  -0.5188795   0.0087328   0.2574927   0.3979805   0.1301185
   0.2373756   0.2582049  -0.3351533   0.0969640  -0.5976271  -0.1648284
   0.3577591  -0.0460005   0.5524968   0.0461433  -0.2778335  -0.0959597
  -0.0701509   0.1085555  -0.3157596   0.8538639   0.2782018   0.1956512
  -0.0849185  -0.3507191   0.1556428   0.3574075  -0.2922263  -0.0960795
  -0.4469464  -0.0951451   0.2109222   0.0536409   0.2132718  -0.1118310
  -0.2278487   0.3677037  -0.2212614  -0.0507728   0.3171867  -0.2361046
   0.1189249   0.3367671   0.1062085   0.0194766  -0.8569332   0.2226316
  -0.2376442  -0.3605029  -0.0873078  -0.0704717  -0.1437634   0.1925801
  -0.0395239   0.5048406  -1.0426989  -0.6550902  -1.0798331   0.5372237
  -0.0555320  -0.3785839  -0.1467405   0.2824989  -0.8659476   0.7216044
  -0.0754083  -0.5075971  -0.2733912   0.0338196  -0.1821334  -0.1055789
   0.5754474  -0.0432304   1.3596615  -0.1249771   0.8087934   0.8128234
   0.0946337  -0.1547999  -0.0494791  -0.7478752   0.2010535   0.4194312
  -0.8312656  -0.1437035   0.4468324   0.1212373   0.2759560   0.0707207
   0.8143090   0.4181791   0.0739413   0.6494698   0.5155332  -0.3998065
   0.2627299  -0.1175608  -0.0700374  -0.3032043  -0.2867955   0.7655082
   0.4444796   0.3210002  -0.3347400   0.3225760  -0.1718959   0.0152743
  -0.3339994  -0.1185120  -0.9216270   0.0833873  -0.1693516  -0.1295126
   0.1521512   0.0508554   0.0641450  -0.0173901  -2.0847905   0.1667414
   0.0402540  -0.0112200  -0.1020122  -0.0188384  -0.2507869   0.2593848
  -0.1656670  -0.4305137  -0.1733894  -0.1713378  -0.2019579  -0.6324273
  -0.1095204   0.1874714  -0.1747361   0.2489567  -0.2392802   0.7219988
  -0.4274165   0.1428249  -0.6825757   0.3716754  -0.1484111  -0.0693303
  -0.5149911  -0.4655469  -0.9476468   1.1483784   0.1189563   0.1284734
  -0.0209928   0.1981361  -0.0284553   0.3861281   0.2625438   0.2697781
  -0.5833551   0.3773833  -0.0951260   0.2516794  -0.2574426   0.0301762
   0.4835833  -1.4419411  -0.5129963  -0.3184291   0.4876372   0.2367738
  -0.3492600   0.0523899   0.0898663  -0.3220961   0.1226807  -0.1727310
  -0.5402112  -0.6057968  -1.1851014   0.0437228  -0.1858273  -0.0278423
   0.1898672  -0.1238590   0.7445956  -0.0837394  -0.2129584  -0.4143855
  -0.0241074  -0.1891565   0.4173728   0.0136038   0.3841872   0.4238063
   1.2093073  -0.2619018   0.3761741  -0.1532400   0.2161907   0.0256512
   1.0825369   0.1891033  -0.3381221   1.4476223   0.4127206  -0.7536028
  -0.2863523  -0.0076099  -0.2674219  -0.0937143  -0.4154992  -1.0396014
  -0.2435844   0.7410798  -0.1213787   0.2075203  -0.1581355   0.1326569
  -0.7258612   0.3026378   0.6086787  -0.5191653  -0.2126497  -0.4101825
  -0.0498986  -0.1721826  -0.1367226   0.6041581   0.8010277  -0.2290657
   0.0835550   0.5556098   0.4373933   0.2125389   0.1566018   0.0698978
  -1.4156446   0.8009099   0.7404624   0.6735040  -0.4051443   0.3181184
   0.0088111   0.0178601   0.1373077  -0.9542702   0.1301162  -0.7472839
   1.5078275   0.2197202  -0.6825996   0.2537362  -0.2105173   0.2864120
  -0.0837594   1.0250419   0.4377625   1.2146006  -0.1111623  -0.3020323
  -0.1156512  -0.2232902   0.0155790  -0.0421222   0.1935762  -0.5062023
  -0.0501848  -0.1797736   0.2959085   0.1598940   0.2369005  -0.1288067
   0.9771282  -0.1847416   0.1020260  -0.3263547  -0.2573282  -0.7414321
  -0.0778451   0.1552132  -0.0601058  -0.1635139  -0.5477228   0.9244514
  -0.4936125   0.1908716   0.2936512   0.0620606   0.0678631  -0.0100299
  -0.1179448   0.3055929   0.1318543   0.2113627   0.2395677  -0.1747409
   0.2776127  -0.0066302   0.0480716  -0.3345659  -0.3492246  -0.1453327
  -0.1052269   1.7504187   0.2544508  -0.0589121  -0.0826208   0.0543717
  -0.3194495   0.6484237   0.1383413   0.4694000  -0.2264966  -0.1078787
  -0.0748763   0.1269911   0.0409820   0.7772347   0.6385549  -0.0688797
  -0.0174945  -0.1327569  -0.5345670  -0.0514401   0.0219713  -0.0013081
  -0.0731798   0.3747300  -0.2020206   0.2727096  -0.1022244  -0.0285453
  -0.0446082   0.1484530   0.2538053   0.8073839  -0.1924272   0.0585856
   0.8206267   0.7259757   0.0932656   0.0824988   0.0866673  -0.0725210
  -0.5890033  -0.4076702  -0.7342160  -0.7691896   0.5311549   0.5854505
   0.0962698   0.2638473   0.0389581   0.6900757   0.9172249   0.2739177
   0.1545855  -0.3550655   0.7341038  -0.0795135   0.0833076   0.3800238
  -0.3637516  -0.4736042   0.2633307  -0.8533523  -1.5319620  -0.0217501
  -0.0568613  -0.2829547  -0.1000067  -0.2090449  -0.3516108   0.4815347
   0.4733105  -0.0037617  -0.3151474   0.0034451  -0.0584478   0.0710517
   0.2552752  -0.4214109  -0.3095463  -0.0790362  -0.2996381  -0.0855636
  -0.2690044   0.0391987  -0.0450916  -0.0189390   0.1594824   0.3206998
  -0.4405425   0.4106860  -0.2617116  -0.2313093   0.0297245  -0.0585463
   0.0708761   0.5022888   0.6623119  -0.1515147  -0.0720773  -0.4541348
   0.0759993   0.0214378   0.1996804   0.3256177   0.0729207   0.1327293
   0.4316895   0.2059457   0.6210311  -0.2488645   0.4360790   0.1724749
   0.1219246   0.2665531   0.1387112   0.7105465  -0.6998907  -0.6319706
   0.0495193   0.1283567  -0.3621780   0.4521897  -0.1919194  -0.3907287
  -0.4825434   0.6746130   0.2276186  -0.1755363   0.2336738  -0.0620172
   0.2026849   0.0245326   0.0739798   0.2336035   0.1102328  -0.0205653
  -0.5192317  -0.1142624   0.2447511  -0.1721877   0.2827375   0.7752385
   0.2398990  -1.0666526  -0.5300162   0.0811292   0.4141568   0.2133000
   0.4250867   0.0999441  -0.1852582   0.2069976   0.3834888   0.3945874
  -0.3232925  -0.2203666   0.1424159  -0.3125499   0.1065386  -0.6288215
  -0.6873073   0.1465375  -0.3291364  -0.1105148  -0.1669770   0.0861207
  -0.7654246   0.4361279   1.3776007   0.3556206  -0.1100505  -0.7113798
   0.0313975  -0.1154215  -0.0833168  -0.0486944   0.4096711   0.1280104
  -0.3117784   0.1630828  -0.7925167  -0.0166041   0.0271272  -0.0213310
  -0.0993733  -0.2556280  -0.3433067  -0.1755322  -0.2418305  -0.2182957
   0.0079599   0.1626439  -0.1289211  -0.9643074   1.3300054  -0.1587372
   0.9721290   0.4489953   1.0101236   0.1531014   0.3384279  -0.0338651
  -1.1879054   0.2255467   0.6333569  -0.7179717  -0.8482795   0.3928653
  -0.0889903   0.0628194   0.1676428  -0.3470235  -0.0317019   1.5085217
   1.1345578  -0.3914189   0.0673726  -0.3948813  -0.1831325  -0.3511351
   0.6985994   0.3673008   0.1499725  -0.2597588   0.0623412  -0.0584915
  -0.0398824  -0.1431802  -0.2154732  -0.0557453  -0.0871745  -0.4313403
  -0.6683904  -0.1775108  -0.6659857   0.0885654  -0.2772460   0.1794510
  -1.3076341   0.1795279  -1.3180703   0.3882981  -0.8486580   0.9104428
   0.1659760   0.1015054  -0.1554528   0.4893216   0.2401379   0.5644511
   0.5971763  -0.3631129   0.0007993  -0.0082143   0.0819137   0.0767786
  -0.4036337   0.2032911  -1.0104471  -0.0780067   0.0205122  -0.0665262
  -0.2421413  -0.0376509  -0.0098046   0.3527982  -0.2538364  -0.2360196
  -0.1878770   0.2551880   0.4226236   0.0383850  -0.0673989   0.0261707
   0.8270317   0.1679250  -0.1554798  -0.4217604  -0.1921695   0.1987655
  -0.1360614  -0.1469509   0.1145473  -0.5809573   0.9416848  -0.3766946
   0.4092239   0.4364259   0.8927537   0.0581080  -0.0585169  -0.1950256
   0.2544646  -0.1697671  -0.4858183  -0.0415851   0.0554154  -0.1934830
  -0.5717221  -0.2041661   0.0623312   0.7626170  -0.3010279  -0.5589720
  -0.7016654  -0.1072966  -0.0030051  -0.0512506   0.1601604  -0.0980570
   0.3950541   0.5004897  -0.1808756  -0.3639954   0.0787037  -0.5349609
   0.0648452   0.1520131   0.1267126   0.1601272   0.0518818   0.0324618
   0.5217044  -0.2977468   0.1773774  -0.0788550  -0.1731147   0.1587941
   0.4630803  -0.3067382  -0.0315506  -0.0912794   0.0857354  -0.1405200
   0.0974299  -0.0120965   0.0727476  -0.2906905  -0.3583425  -0.2560921
   0.1928418   0.1603794  -0.2138944   0.0127715  -0.2742729   0.0992677
  -0.1562655  -0.0025980   0.3714569   0.1420743  -0.4627995  -0.1534804
   0.0853133  -0.1748729   0.1545530   0.1813681  -0.6426357   0.4622082
  -0.1147634  -1.2330307  -0.3074731   0.1760587  -0.0109029  -0.2629446
   0.0252961  -0.0964404  -0.1358540   0.2202441   0.0180167  -0.2235919
   0.0055138  -0.1223383  -0.1589432   0.6808089  -0.6093619  -0.0314072
   0.6111813  -0.5592338  -0.1979540   0.0269021   0.2768171  -0.1572462
   0.1800928   0.3960434   0.0197953  -0.0707432  -0.7401929  -0.7952506
   0.1719988   0.0964070  -0.3753918   0.6863857   0.1386528  -0.9728808
  -0.0391279  -0.2626566  -1.9799503   0.3943037  -0.0065602  -0.2046720
   0.5935218  -0.5980022  -0.0956619  -0.1326624   0.6800806   0.2385509
   0.1712262  -0.0589469   0.0531448  -0.7603693  -0.3703518   0.9416615
   0.2503477   0.7134080   0.5437666  -0.0424516  -0.1608063   0.2505098
  -0.3444108  -0.3921367  -0.1021443   0.5829075   0.2170941   0.3765245
  -0.0752673  -0.1314783   0.0349699   0.6640214  -0.5961876  -0.3563120
   0.2989163  -0.0370233  -0.3248695  -0.0756607   0.0512457   0.0566819
  -1.0582675   0.0164899   0.7819238   0.4395570   1.0981188   0.6985076
   0.1734176   0.1485758   0.1087069  -0.2699713   0.2317250  -0.2414291
   0.6335177  -0.1630922  -0.3206721   0.0334154   0.0043314   0.1638170
  -0.0936360  -0.0588810  -0.9641191  -1.2329997  -0.5653360  -0.4877658
  -0.2455941   0.3834401   0.1660720   0.6348223   0.3040249  -0.5447726
  -0.4445897   0.8549942   0.2815538   0.1047889  -0.3208491   0.1305624
  -0.3215933  -1.0385219   0.1841496  -0.5138657  -0.3680300  -0.1932979
  -0.2556114  -0.2521067   0.0440866   0.8052118  -0.7660055   0.7515828
   0.0419123   0.2697841  -0.4350642   0.0696399  -0.1987081  -0.0827776
  -0.0797690   0.3025167   0.2738703  -0.2509220   0.2047504   0.2691206
   0.3149849   0.1864613  -0.0017602  -0.1402003   0.3397601   1.2076568
  -0.6301083   0.3923317  -0.8422896  -0.0710247   0.0168878  -0.0714726
   0.4017072   0.0323886   0.5949185  -0.0922965  -0.1454149  -0.3150109
  -0.1114795   0.1173510   0.0248124  -0.0494895  -0.8382245   0.0271822
   0.2097361  -1.7796368   0.0419839   0.0745146  -0.1460548   0.0955177
   0.7941459   0.0352521   0.4176038   0.6107050   0.0343517  -0.2699601
   0.1385210   0.2500290  -0.0465818   0.2142888   0.2848402   0.0047468
   0.8356386   0.6390449   0.5639472  -0.0530825   0.1552496  -0.1058195
  -0.3795707  -0.0178709   0.2939029   0.0263838  -0.2636140  -0.4372875
   0.0245931   0.5272562   0.2843442   0.6912665   0.1879825   0.1209178
  -0.1650434   1.0693123   0.6646769   0.0607265   0.1423051  -0.1274650
   0.8095545   0.5758738  -0.3531248   0.3812186  -0.0169004   0.8415487
   0.0010540   0.0266407   0.0052590  -0.0135874  -0.5028211   1.0197715
  -0.0648447   0.4587948  -0.7884572   0.0503647  -0.0593677   0.2862819
   0.5313631  -0.6593983  -0.6689345  -0.6873195  -1.2143632   0.6244383
   0.1448020   0.2207953   0.1778592  -0.7177671   0.6736650  -0.6871273
  -0.2775479   0.3919532   0.5728478   0.0223738   0.2723812  -0.3066529
  -0.1229198  -0.4692762  -0.4578965   0.1053889  -0.2814835  -0.3703602
  -0.0651538   0.0089531  -0.3819012   0.8669144   1.1863766   0.9467897
  -0.6241760   0.6946059  -0.3052974   0.2042506  -0.1807185  -0.1352872
   1.2257965   0.0217019   0.6317310   0.0409828  -0.1608781  -0.2485433
   0.2378828   0.2046900   0.1660243  -0.3794055   0.5271552   0.6818291
   0.1871083  -0.3738900  -0.1580925   0.1199471   0.1805957   0.0814035
   0.2331557   0.3835292   0.4434766   0.3706755  -0.1686363   0.0695385
  -0.0362851  -0.1351735   0.0411431   0.5310388  -0.3639080   0.1772081
  -0.3773856   0.0153730   0.0161661   0.1564131   0.1134961   0.0953844
  -0.5058614  -1.0650504  -0.1114781   0.2264469   0.7755891   0.4296565
   0.3413835  -0.2433237  -0.1729617   0.1733899  -0.6026844   0.2233866
   0.2704484  -0.5957788   0.2109281  -0.1636445  -0.0465762   0.0001605
   0.2295181  -0.1945656   0.3497728   0.4616195   0.0894955   1.2169018
  -0.0023171  -0.0977841  -0.1046106   0.9213702  -0.6282624  -0.6989814
  -0.2541273  -0.6212593   0.5428081   0.1089359   0.0435985  -0.3067821
   0.1832099  -0.0240129   0.0079864   0.5258300  -0.2571826  -0.4728104
   0.2856900   0.3115640  -0.2705648  -0.7901151   0.9917400  -1.2143319
  -0.5504904   0.4324974  -0.4676554   0.1316550   0.2942683  -0.0199635
  -0.0453577  -1.2159488   0.2977817   0.4109874   0.0011910  -0.0811779
   0.0448637  -0.2245800   0.0723301  -0.0261753   0.9448236   0.5687533
   1.0433794  -0.6059511   0.0081578  -0.0663757  -0.0414316  -0.1850385
  -0.5054748  -1.4300012   0.2813730  -0.4048930  -0.1255952   0.2401537
  -0.3076000  -0.1335067  -0.0003044   0.2839005   0.2168484  -0.7737624
  -0.1724111  -0.5543967   0.6536892  -0.0688612  -0.0883136  -0.1582428
   0.5427796   0.6352716   0.1023841   0.5030470   0.0542500   0.8940205
   0.1933522  -0.2598045   0.1039387   0.6674841   0.1230971   0.2616271
   1.0513959  -0.7478099  -0.0194025   0.0327140   0.0529421  -0.1085809
   0.0373217  -0.0565313   0.3982889   0.0904420   0.9040687  -0.3624932
   0.1127728  -0.1966421   0.1268901   0.1145362  -0.0352722  -0.0312700
  -0.3006902  -0.2458478  -0.7206037  -0.1800332   0.1631594   0.2925358
   0.3320555  -0.3009160   0.5048121  -0.3636507  -0.1305453   0.0781458
   0.2359809   0.0177680  -0.2640478   1.0005592   0.1659351  -0.5041483
  -0.2292940  -0.1299139  -0.5275733   0.0824474  -0.0184647   0.2128765
   0.0508398  -0.0262202  -0.2244596  -0.0048005  -0.1762365   0.1358313
   0.1770149  -0.3111896   0.0867543   0.4444699  -0.0201477   0.1002643
  -0.7471467  -0.7389067   0.3125714  -0.0118723  -0.2350865  -0.0773933
   0.8267448  -0.3385008  -0.4466466  -1.0412541  -0.2104077   0.5300309
   0.1137945  -0.3924863   0.0886210   0.0187538  -0.3529158   0.1171842
   0.0879997  -0.8764826  -0.4085528  -0.1863812  -0.0532254   0.0411555
   0.1861574   0.3763270  -0.2908200  -0.1950515  -0.1146360   0.0893219
   0.0343596   0.0600805  -0.0977365  -0.0154262   0.7155020  -0.7161253
  -0.0730921  -0.9823511   0.3154029   0.0200636  -0.1746249   0.1441871
  -0.3842525   0.8868148   0.2474612   0.2141866   0.4791833  -0.2942792
  -0.0956645  -0.1145466  -0.4261889  -0.5366738  -0.3615420   0.4621384
  -0.9267864  -0.4256676  -1.0289085   0.1907435   0.1281043   0.1811845
   0.7132796  -0.2901675  -0.7565961   0.1948944  -1.1460943  -0.4647426
  -0.1943254   0.1647355  -0.1515290  -0.1182491   0.1989106   0.4118334
  -0.2584163  -0.2542631  -0.0611294  -0.4150305   0.2920460   0.0680186
  -0.3141402   0.2047310   0.7462221  -0.0945211  -0.5739582  -0.2993870
  -0.2714003   0.0753154  -0.2203801  -0.5657245  -0.0347512   0.2790767
   0.1041008   1.0721080   0.5008244   0.0254160   0.0207474  -0.2919962
  -0.3183279   0.3023195  -0.2455664  -0.1025403   0.2051577  -0.2597196
   0.0385141  -0.1865027  -0.3020750   0.5158235  -0.0400840  -0.8860196
  -0.2486205   0.3588737   0.2347182   0.2467197   0.0944437  -0.1350041
   0.9534362   0.9257978   0.4583384   0.0905128  -0.8453971   0.4210120
   0.1239251  -0.1286695  -0.0025747   0.6023013  -0.1596753  -0.0692384
  -1.2417385  -0.0191545  -0.1089944  -0.2878683  -0.2366858  -0.0480141
  -0.2113588  -0.1261168  -0.1656136   0.0602255   1.1640007   0.5148873
  -0.3234968  -0.0333516  -0.0557110   1.4046968  -0.0973980  -0.1992157
   0.0390003   0.5686174   0.3415925  -0.0629721   0.2437723   0.0389337
  -0.1281920   0.4176976  -1.0946385  -0.5669161   0.9338511   0.8373060
   0.1505051   0.1053007  -0.0472579  -0.9332715  -0.3541630  -0.3288864
  -0.1867087  -0.4940934  -0.8355554  -0.0539355   0.0758163   0.0518746
   0.4065293   0.1728977   0.5646195  -0.6102939  -0.1405699  -0.2992819
  -0.0206965  -0.0636308   0.2948970   0.2753662   0.4162273   0.0093550
   0.4994636  -0.2964216   0.6178647   0.2236884  -0.0930763  -0.1689843
  -0.2793899  -0.3553016   0.1371437   0.3953936   1.8958539  -1.7767056
   0.1224861   0.0968899   0.0338244  -0.2477554  -0.2376438   0.6431414
  -0.5994931   0.1843250  -0.7890839  -0.1967639  -0.0084695  -0.0615977
  -0.5266667   0.9438885   0.3264654   0.1762838  -0.2263571  -0.1626970
   0.0121977  -0.3136921   0.0028095  -0.4579026   0.0242764  -0.3753119
   0.8935551  -0.3915081   0.8126130   0.2063032   0.0228404  -0.3504003
  -0.0667707  -0.8832385  -0.4693845   0.0670605   0.3528595  -0.6823411
   0.0623546  -0.2207689  -0.2417256  -0.2858179   0.2545426  -0.1538790
  -0.2649785   0.2601944  -0.5868650   0.0404731  -0.0460600   0.1382625
   0.2645392  -0.1315067   0.3953082   0.6200555  -0.1746261  -0.3343076
   0.0658386  -0.0580125   0.2681999   0.2115543  -0.2890188  -0.0467917
  -0.0900928   0.0308969   0.4674033  -0.0931020   0.2470214  -0.3494808
  -0.8257380  -0.3857804  -0.6841151   0.4968490   0.8803117   0.0974367
   0.1738616   0.0296735  -0.0715491   0.2541870   0.8467255   0.1736768
   0.1626890  -0.4577748  -0.0613503   0.1237296  -0.1100737  -0.0986171
  -0.7473886  -0.5020421  -0.3235822  -0.7343605   0.5931383   0.2896279
  -0.0162988   0.1121213   0.3806791   0.4751289  -0.1480473   0.4603618
  -0.5821153   0.4081788   0.2982717   0.1557320  -0.1517176   0.0794112
  -0.5414640  -0.6326288  -1.1079387   0.2592294  -0.1005949   0.2051966
  -0.2892066  -0.1985684   0.0114938  -0.9037930   1.1072033  -0.6430333
  -0.2346793   0.0151475   0.0734487   0.0090972   0.1621187  -0.2755632
  -0.0599167   0.6737365   0.0388860   0.1079135  -0.1239255  -0.7445590
   0.0939425   0.0832472  -0.0598311   0.1647715   0.7754351  -0.3616687
   0.0779473  -0.6605651   0.0304203  -0.0037301  -0.0371240   0.0465712
  -0.6885031   0.7194322   0.4148974   1.2014756  -0.0026820  -0.4964610
   0.1897173  -0.0402115   0.1594323   0.1135200  -0.6484580   0.3241259
  -0.2856058   0.7161488  -0.0885318   0.4159056   0.0126265  -0.0633377
   0.4595251   0.1395149   0.5993231   0.0504433  -0.3954247  -0.4131859
  -0.4783491  -0.5330850  -0.0971101  -0.4533912   0.1773377   0.3798282
  -0.4073122  -1.1216306   0.3533728  -0.0149910  -0.2114782  -0.2267005
  -0.0548474  -1.2616752  -0.7709832   0.3097406   0.3939573  -0.0329993
  -0.5757887   0.1674479  -0.1412607   1.2270959   0.0837485   0.2439250
  -1.2003412  -0.6678586  -0.4155614   0.3597346  -0.0049953  -0.0733379
  -0.2161771  -0.0138111  -0.7881339   0.1772166  -0.8815940  -0.3409892
   0.0071105  -0.3222651  -0.2792416   0.2910729  -1.2338857  -0.9996232
   0.2256795   0.0903857  -0.0011874  -0.1841761  -0.1259415  -0.0010539
   0.0675620  -0.1063201  -1.7119095  -0.1878253  -1.4764064   0.8456627
  -0.0272637  -0.0589639   0.1969551   0.3679143   0.1626515   0.0250508
  -0.1371097   0.1100767  -0.2223494   0.0060162  -0.1309452  -0.1606235
   0.9767784  -0.5350513  -0.1284988   0.1997453  -0.2273367  -0.1677398
  -0.0320140  -0.1597516  -0.2180989   0.1304690  -1.7724744   1.5424354
   0.8572624  -0.6994331  -0.5918144   0.0345546   0.3563745  -0.2382442
  -0.8081535  -0.2991187   0.1859490   0.4464181   0.0292325   0.5141106
   0.2017591  -0.0312291  -0.1560380  -0.0259335  -0.5442962  -0.3589397
  -0.0860401   0.3636159   0.1949762   0.0029785   0.0814493   0.1876045
   0.1059562   0.5897294  -0.5801940   0.0307535   0.1250092   0.1094867
  -0.1744281  -0.0363496   0.1684974  -0.5411024   1.0505541   0.0945230
   0.1672550   0.8145366  -0.7281586  -0.1787494   0.0829268  -0.1986374
   0.6342500   0.1652801   0.2535166   0.7201067   0.4421689  -0.2867715
   0.0287070  -0.0950402   0.0488961   0.4906446   0.1718985  -0.0951942
  -0.5083856   0.1942587   0.1223927  -0.0725346   0.0053255   0.1442843
  -0.4539736   0.2649903  -0.4598391  -0.0960435  -0.0027406   0.4259533
  -0.1890268   0.0334749   0.1296618  -0.2823344  -0.2189943   0.7191807
  -0.2037590  -0.1342028   0.3908392   0.0075001   0.0808906  -0.0961519
  -0.2894224   0.0828062  -0.3263161   0.3496069  -0.8731054   0.5224733
  -0.0744755   0.0625973   0.0882056  -0.8988834   0.4197170   0.5650564
   0.3901788  -0.1120309  -0.1979970  -0.0633471   0.1521688   0.1394160
  -0.2434185   0.4454301  -0.3293811  -0.7644539  -0.7311091   0.5990818
   0.2390647  -0.4111372  -0.0905802   0.1679231  -0.7049758   0.3306041
  -0.2305765   0.0167449   0.8374747   0.0283515   0.3252588   0.4115475
  -1.4401285   0.1748218  -1.4590757   0.6494724   0.8972262   0.6716022
   0.0600693   0.1811388   0.3039982   0.4400866   0.0556241   1.0866726
   0.6541609   0.0717659   0.3851271  -0.0997557   0.1943234   0.1025141
   0.0833465  -0.2567962   0.2064667   0.2522019   1.5608983  -0.0665367
  -0.0409128  -0.0569158  -0.2390382  -0.0892918   0.1492975   1.0404503
   0.0491316   0.0805801   0.7528634  -0.2780620  -0.0307372   0.0022192
   0.2659101   0.9974090  -0.4192086   0.0586020  -0.3445464   0.2701979
  -0.4612781  -0.0691624  -0.0408826  -0.6342867   1.0489482   0.4764046
  -0.1430182   0.5881075  -0.7075193   0.0210695  -0.0252574  -0.0647433
   0.4822763  -0.3719111  -0.4128654  -0.7211208   0.1509377   0.6820254
   0.1930013  -0.2299936   0.1919182  -0.8978210   0.7353042   0.3611983
   1.4297183   0.2655002  -0.3625181   0.1547785   0.0995180   0.0680384
   0.1115214   0.1063774  -0.1915788   0.1967499   0.1391152   0.3923962
  -0.0505990   0.4276290   0.0658969  -0.0596298   0.6949721  -0.2795445
  -0.0572067   0.5379726  -0.1555762  -0.1260712   0.2175907  -0.0730632
  -0.2220899   0.4115509   0.2904168  -0.0695980   0.1934537  -0.0722444
   0.0134070   0.2134394   0.2138617  -0.2606295  -0.4798586   0.3893811
   0.0948121   0.8491574   1.7073732   0.0198355  -0.1835826  -0.1342685
   1.0900255   0.3683693   0.1315094  -0.3625379  -0.3728798   0.7593424
  -0.1658297  -0.0182867   0.2115145  -0.5371705   0.3759234  -0.2231034
  -0.2281679   0.1863591   0.6606822   0.1785072   0.1556312   0.0427742
   0.6003131  -0.4231914   1.1779501  -0.7677519  -0.7958512  -0.6341688
   0.1272583   0.0766446   0.1181261  -0.5439485   0.0519033  -0.5386252
  -0.1664613   0.1562399  -0.1304499  -0.0166501   0.1075235  -0.0704638
   0.0535121   0.2779948   0.1420585  -1.4036640   1.5703154   0.2051341
  -0.1448439  -0.1724725  -0.2028112   1.1707001   1.2147714  -0.1698466
   0.6274233   0.0790432   0.1187162   0.0284842  -0.0320601  -0.0506278
  -0.0488852  -0.1106167   0.0448012  -0.7325315  -0.0321374   0.5470683
  -0.0860295   0.0550955   0.2775049  -0.3154021   0.1034979   0.1513134
  -0.5170894   0.6231806  -0.3494303  -0.0404808  -0.0559332  -0.0717681
   0.1111168   0.2281688   0.1114460   0.1317684  -0.4602405  -0.3093495
  -0.2032918   0.2785090  -0.1792386   0.3221523  -0.7091787   0.7384941
   1.0666871   0.5670940  -0.6071364   0.2756198  -0.0165470  -0.1329382
   0.2223100   0.2092237   0.0077087   0.2735239   0.4562508  -0.3645822
  -0.2025049  -0.1544763  -0.0975142   0.0993597   0.3826053  -0.0219418
   0.2466741   0.7789926  -0.5786151   0.0049323  -0.4470959   0.1460556
  -0.1697792  -1.4457585   0.1184522   0.9012873  -1.0636012  -0.5310206
  -0.1223762   0.0005245   0.1014654   0.3244705  -0.0953497  -0.5308627
  -0.7499332  -0.4717965  -0.0210393   0.1609524   0.0345396   0.0162411
  -0.0157404  -0.0527807  -0.5083002   0.6453279   0.5499232   0.8211925
  -0.2555937   0.1215215   0.3015205   0.3172348  -0.3171884  -0.3936537
  -0.1658816   0.0330794  -0.0222162  -0.0122504   0.1235128  -0.1053399
   0.4084027   0.3165804   0.4281256   0.2154451  -0.5341223  -0.2262213
  -0.1787318   0.0643767  -0.0126526  -0.7400155   0.0433902  -0.4386502
  -1.5591805   0.0287220   0.5537842  -0.1003291  -0.0401574  -0.2848927
   0.0725284  -0.3681781   0.1716733  -0.3387266  -0.1425677  -0.4245279
  -0.4192664   0.0615177  -0.1470290  -0.5263183  -0.1805740   0.3771786
  -0.5066267  -0.1922106   0.2046002  -0.0009126   0.2883773   0.2315868
  -0.2567038   0.4757074   0.3251326  -0.7062439   0.9152875   0.5528445
  -0.0700138   0.2985837  -0.0959553   0.0619272   0.4364021   0.2780525
   0.0985899  -0.1585486  -0.6660254  -0.0900485   0.0900924   0.0245853
  -1.5086843  -0.5908135   1.0793511   0.5931703   0.4020352  -0.5401005
  -0.2207699  -0.0029576   0.1207257  -0.0417102   0.3519697  -0.2979380
  -0.9615132   0.0106820  -0.7500701   0.0618707   0.1720159  -0.0489981
   0.7950835  -0.2371512  -0.6941749   0.2956390   1.3577758   0.1114528
   0.2557960   0.0245189  -0.0786556   0.6164039  -0.7252199   0.3435558
   0.0851614   0.5237916   0.2355259   0.2366993   0.3623076   0.2542655
  -0.1543100   0.6872156   0.6651093  -0.1807368   0.1350163  -0.0441612
  -0.1001180  -0.0949023   0.1070384  -0.2397360  -0.1426488   0.2116344
  -0.2710270  -0.1481029   0.2261245  -0.1493646  -0.3337227  -0.3830333
   0.2386497   0.2160951   0.1266190   0.6871192   0.8322789   0.7124172
  -0.1172081   0.1400697  -0.0424919  -0.5262583  -0.5939494  -0.1256146
  -0.5376485   0.1075731  -0.1216863   0.4378297   0.0034143  -0.1311011
   0.6450865   0.2374626  -1.0127066  -0.2212167   0.3871154   0.0792087
   0.2004970   0.0136159  -0.2773591  -0.3019284  -0.4266883  -0.8196961
   0.5296180  -0.2059339  -0.6932792   0.0774621   0.2337572  -0.1335360
  -0.9083864  -0.1119466  -0.8252707  -0.9719224  -0.5826137  -0.2014571
   0.0276557  -0.0473974  -0.1407237   0.1611761  -0.2408023  -0.4873873
  -0.4692930   1.1738449   1.6597906  -0.0865910  -0.3012385   0.1549223
  -1.2744193   0.0196673   0.5983089  -0.1426502  -0.7955988  -0.8840172
  -0.0801134  -0.1219159  -0.1209759  -0.6862236   0.0006919  -0.1918308
   0.4512610  -0.1187091   0.5174719  -0.0596432  -0.1497294   0.0023114
  -0.1006239  -0.0489387  -0.5056573   0.0348471  -0.1310582   0.3071089
  -0.0944616   0.0809051  -0.1514662  -0.6463764  -0.2952394   0.3009851
   0.5499022   0.3971550  -0.9589461  -0.1057442   0.0299068   0.2640138
   0.1978785   0.1870710  -0.0554712   0.3275172   0.2131757   0.2521896
   0.2022773  -0.3232247  -0.2059081   0.0029034  -0.3496657  -0.6408848
   0.4424671  -0.2086174  -0.5101200  -0.1252058  -0.0268924   0.0320298
   0.4483850  -0.2142098   0.1961929  -0.3057534   0.0297757  -0.0066147
  -0.1026965   0.2498493  -0.2153541   0.8369901   1.0403556   0.0748927
   0.6493174   0.5239703  -0.4364255   0.0013304   0.1459543  -0.0791511
   0.1524273   0.5494113   0.9630281  -0.7520290  -0.6129790  -0.9548741
   0.1244567   0.2424970   0.0342141   0.2170387   0.5562756  -0.3337191
  -0.4236287   1.1034898   0.8401710   0.1240514   0.0877014  -0.0278366
  -0.1849890  -0.6080330   0.4679673  -0.8642641  -0.5563135  -0.7805098
  -0.1039529   0.0188411   0.3098061  -0.3318746   0.0410558  -0.6732625
   0.3504580  -0.9818358   1.1031910   0.2298320  -0.1042065   0.0714086
  -0.5504744   0.2661076  -0.7989241   0.9442760   0.5008003   0.2053270
  -0.0568142  -0.1146557   0.0585063   1.1873758   0.7797283   0.0709833
  -1.2285244   0.3568763   0.3231625  -0.3012406   0.2502529  -0.0041684
   0.1421202  -0.3911821  -0.4849315  -0.7497656  -0.2328909   0.0011589
   0.1916531   0.4620722  -0.0306057   0.2210659   0.3092609   0.1192155
  -0.0042016   0.3185353  -0.4305698   0.3553988  -0.1405769  -0.0620072
   1.5543216  -1.6883253   0.2530238   0.8686888  -1.6115454  -0.5633713
  -0.0118992   0.0305467  -0.1425013   0.9060913  -0.1968228  -0.5664771
   0.2687880   0.5384699   0.6173936   0.0879777  -0.2309657   0.1997402
  -0.1950439  -0.8504590  -0.2409056  -0.1351045   0.6550621   0.4260056
  -0.2919715  -0.1100148   0.3169068  -0.7732883   0.7276335  -1.0675788
   0.8559588  -1.3109796   0.9578496  -0.1961374   0.2088536   0.0433778
   0.7402523   0.5166819   0.6035475   0.6322914  -0.1965021   0.1458116
   0.0460258   0.0806732   0.2255952  -0.8778477   0.4497663   0.2725874
  -0.0313657  -0.4797260  -0.7175222   0.0796354   0.2371932   0.1916727
   0.5135751   1.0075436   0.4689002  -0.4793238  -0.4214490   0.5507760
   0.0270276  -0.2971234  -0.1132994  -0.0487113  -0.6980246  -0.6792661
  -0.1023788   0.0619056  -0.0345952  -0.1475419   0.0808375  -0.3897020
   1.1915733  -0.3389098  -0.2689641  -0.0646487   1.1197880  -0.5992325
   0.1414131  -0.0517567  -0.1538387   0.1904728  -0.0094312  -0.6066968
  -0.6466578   0.4060076  -0.3946062   0.0308971   0.1110191  -0.0967980
  -0.2916086   0.5470746   0.5847953   0.1444730   0.0000973  -0.2906631
   0.1695155  -0.0227185  -0.1654684   0.0835292   0.1031048  -1.1599866
  -0.2435851  -0.1482483   0.0741585  -0.0676937  -0.3121502  -0.0313721
  -0.6159476  -0.8744469  -0.2547548  -0.5147531  -0.5698094   0.5299535
  -0.1457690   0.3109120  -0.1745634  -0.1272242   0.3205687  -0.0969624
  -0.0502238   0.3749707   0.3009076  -0.3143257  -0.1333648   0.0457026
  -0.3924812   0.0071498  -0.3059370  -1.1983962   0.0376396  -0.2251768
  -0.0526417  -0.1635186   0.3173698  -0.2122301   1.0753984  -0.0040927
  -0.1214993   0.1144848   0.2759035   0.0147015  -0.3284805  -0.2213228
  -0.1961281  -1.3187939   0.2355673  -0.0194503  -0.3073106  -1.7804456
  -0.3423256  -0.0533844   0.0021440  -0.2471339   0.0418626  -0.6798865
  -0.3173472  -0.1500887   0.3416705  -0.0262532  -0.3364256   0.2534293
   0.1122616  -1.2471578   0.3624491  -0.3127576  -0.4003128   0.6137254
  -0.1517049   0.2716707   0.1401029  -0.1367092  -0.7709447   0.2006772
  -0.1503277  -0.4244135   0.2156502  -0.1532707  -0.2734164  -0.0782893
   0.0577301   0.9157534   0.3729995  -0.1849276  -0.8954691  -0.3678079
  -0.2833451  -0.1236817   0.0699157  -0.5760231  -0.1179212   0.1118003
  -0.2431233  -0.3601513  -0.2320200   0.2184491  -0.2605718   0.2365629
   0.2009673   0.4869537   0.7144802  -0.5828079  -0.1582167  -0.1925447
  -0.0296353  -0.0067763   0.2060361  -0.7720507   0.0519192   0.0247388
   0.1777641   0.4840451  -0.1032393  -0.0380355   0.0924688   0.0388645
  -0.6924323   0.2766727   0.2783208   0.5152146   0.0835499   0.0010570
  -0.2460563   0.2012452   0.0765943  -0.3152112   1.3913225  -0.1629945
  -0.1185453   0.0769461   0.6624611  -0.1001712   0.2611665  -0.0622614
  -0.0952936   0.5044645  -0.0604375  -0.1333510   0.0195076  -0.0247270
   0.0067100  -0.1462535   0.1629937   0.3223989   0.0487887   0.4989749
   0.2062113  -0.1397431   0.1439495   0.2107767   0.0787595  -0.0871653
   0.2546334  -0.1942705  -0.0989344  -0.2514484   0.0843398  -0.4943989
   0.2305864  -0.1600275  -0.1326956  -0.3989966   0.0322435   0.6556227
   0.2092366  -0.1588117  -0.1240286  -0.1630017  -0.3267992  -0.2236694
   0.9365636   0.6106218  -1.4921084   0.1671164  -0.1262782  -0.7643238
  -0.2048339   0.0766664   0.1735313  -0.0979687   0.3621738   0.2574165
  -0.1481284  -0.0124291   1.0146933   0.0124607   0.0931116   0.0817435
   0.2793972  -0.6529884   0.1323022   0.4560368   0.3421950   0.7999897
   0.1023351   0.1643652   0.0844675  -0.5599099   1.3753723   0.5851482
   0.1617370   0.1436787   0.1893101   0.1533192  -0.2032813  -0.1416700
  -0.5947377   1.1215979  -0.2020468   0.1583727   1.2274969   0.3381998
  -0.2727512   0.3008162   0.0947642  -0.4918424   0.2600331  -0.0037626
  -0.1302985   0.0793845   0.4756879  -0.2510803   0.0634173   0.0609489
  -0.2362606   0.1211733   0.0150022   0.0170258   0.2851254  -0.1638086
  -0.1744365  -0.4340660   0.0170445   0.1484622   0.8044218   0.8835973
  -1.3148505   0.1961650   0.7748217   0.4461250   0.4006105  -0.1066450
   0.3715715  -0.6647542   0.7749996   0.6664740   0.4850498  -0.2262580
  -0.0673148  -0.4564590  -0.0602000   1.2787036  -0.1426827  -0.1376750
   0.0699094  -0.4227629  -0.8170763  -0.1489379   0.0559862  -0.2341539
  -0.1829153  -0.1199498  -0.1545831   0.5637833  -0.6225555   0.0259027
  -0.2668830   0.0730729   0.0499590   1.4641963  -1.8425633  -1.0255299
  -0.4096684   0.1775677   0.0284794   0.2885274   0.0451686  -0.2268218
   0.8122111   0.2468321   0.5395410  -1.6134795  -0.5230252   0.3355890
  -0.1530086  -0.0483858  -0.0797764  -0.2402957  -0.5678544  -0.3403983
  -0.4272134  -0.0099760  -0.0997639   0.0888043   0.0312514  -0.2049013
   0.3277718  -0.3204244  -0.2973673  -0.1423903   0.1241442  -0.1783883
  -0.0964438  -0.0322103  -0.0407434   0.5545079   0.0265803   0.2275455
   0.3780293   0.0173403  -0.2163568  -0.1356976  -0.1101578   0.0807339
  -0.5589611   0.4993529  -0.9900161   0.5758378  -0.4051768  -1.0123571
   0.3678357   0.1245376  -0.2010005   0.4959840   0.6203455  -0.7572471
   0.4081932   0.8953142   0.4720030   0.0869714  -0.2618109  -0.0733424
   0.5897221   0.2694376   0.5814788  -0.7660420   0.1556114   0.0475234
  -0.0335935  -0.1152021   0.2533436  -0.6570015  -0.1164893   0.3392036
  -0.0869379  -0.1486053   0.3344950   0.1836707  -0.0465234  -0.1236410
   0.2692561  -0.8524196  -0.2915472   1.1586839   0.5589932  -0.3834145
  -0.0807412  -0.2646066  -0.1679828   0.2824717   0.0105455  -0.1434291
   0.1395795  -0.0956293  -0.1234597  -0.1675277   0.2330167  -0.1038287
  -0.0586335  -0.5938522  -0.0254137  -1.3785966   1.0065352  -0.0629085
   0.2900480  -0.0971871   0.0117187   0.4618769  -0.4538124  -0.1557106
  -0.3538912  -0.1631727   0.3136866  -0.1223723   0.0796886  -0.2529587
   0.3324328   0.5723959  -0.1181730  -0.3569058  -1.0005083  -0.3505695
  -0.1646209   0.1354405   0.0353549   0.0486586  -0.2028320  -0.3376111
   0.2399037   0.0011508   0.7431332   0.2108032  -0.1634985  -0.1298648
  -0.0205106   0.0363399  -0.2651668   0.0576284  -0.1609382  -0.1657578
   0.1025998  -0.0179499  -0.2292189   0.1947902   0.3512729   0.3920862
   0.7893135  -0.2598085   0.2385404  -0.2111105  -0.0813417   0.0309925
   0.2119270  -0.0677023   0.1372597   0.5686773  -0.8367688  -0.4779202
   0.0864689   0.3366246   0.3053353  -0.0712170   0.5928222  -0.7278105
  -0.1255639   0.1253683  -0.0112842  -0.2480118   0.0089302   0.1399258
   0.1198089  -0.0766587  -0.2164011   0.0001284  -0.6554771   0.2365275
   0.1759345  -0.3116510  -0.2886264  -1.1993467   0.4028524   0.2650436
   0.7981442   0.2518317   0.0202401   0.2061709   0.1259369  -0.0080159
   0.8228105   0.8739654  -0.1409889   0.7674844  -0.7644633  -0.5327371
  -0.0001072   0.0055167  -0.1395583  -0.4544456   0.0642633   0.5657658
  -0.2146656  -0.5113575  -0.7990953   0.0670485   0.1300830  -0.2601350
  -0.1351528  -0.3197657   0.0971109  -0.6067951  -0.2719595   0.3402566
   0.1720457   0.0269584  -0.0443655   0.8213519  -0.0594309  -0.2921469
   0.9046987   0.0257078   1.0397632   0.2871536   0.1444556   0.0874251
  -0.2361281  -0.0688982  -1.0887131   0.0996540   0.0215287   0.2319932
  -0.0012689   0.1154900  -0.1982964   0.0395747  -0.3516222  -0.0552795
  -0.0600662   0.0542514  -0.1558100  -0.0635142  -0.1548210   0.0123823
  -0.0453249  -0.4948797   0.3674999  -0.2924635  -0.5083437  -0.4458965
   0.3200926  -0.2028972   0.0083093   0.6581577  -1.1061337  -0.3584013
  -0.4218242  -0.6327773  -0.5502133  -0.3267496  -0.0198908  -0.5081358
  -0.4904934   0.1501796  -0.6307566  -0.6496473   0.6252896  -1.0874750
   0.0915607   0.3227182  -0.0300561   0.5170950  -0.1445146   0.5547243
   0.5857106   1.2471723   0.0885934  -0.0521817   0.0640361  -0.4063220
   0.4113031   1.5269214  -0.4238016  -0.4399205   1.2715496   0.0942741
   0.0852869   0.1196467  -0.0998281   0.3345977  -0.5763019   0.2840119
  -0.6342349   0.2271305  -0.4357517  -0.2668015  -0.0331726  -0.0281715
  -0.5894443  -0.3485653  -0.0818643  -0.5407283   0.1017933  -0.1493777
   0.0673699   0.0316894  -0.1394389  -0.2859843   0.4608623  -0.6091848
  -0.1177718   1.1868798   0.1567714  -0.1601048  -0.0734342   0.2917133
  -0.4876090  -0.5254522  -0.5271227   0.2311767   0.2480302   0.2272758
  -0.2544684  -0.2180121   0.1317324  -0.1208089  -0.3101926   1.3019511
   1.0168310  -0.1309986   0.1870806  -0.1436454   0.0486428   0.0309414
  -0.1081466   0.0385055   0.5344094  -0.2681194   0.3467842  -0.0536782
   0.4300431   0.0664706  -0.0564939   0.2346920   0.3568285  -1.1474586
  -0.3537643   0.6763983  -1.2059469   0.0832833   0.0850724  -0.2518805
  -0.1933853  -0.4635137  -0.4414163  -0.4856739  -0.5007472  -0.5259143
   0.3922574  -0.2766135   0.2215291   0.4846000  -0.8077284   0.7100106
   0.5033401  -0.4756717  -0.0829760  -0.2237329   0.0812464   0.1800441
  -0.8138242   0.0440454   0.2486752   0.2482721   0.4327348  -0.2001880
   0.1761173   0.1593014  -0.1411398   0.4934454   0.3774731  -0.3082092
   0.6258111  -0.4066031  -0.5101196  -0.0694932  -0.1015225   0.1227856
   0.1177388  -0.7386338  -0.4580622  -0.0410444   0.0027541   0.2317594
  -0.1430986   0.0393451  -0.0704282  -0.1370619   0.9375969   0.1075456
  -0.1573068  -0.5892281   0.3929107  -0.1413878  -0.1901688   0.1529644
  -0.1421453  -1.2772582   0.2109492   0.8827242   0.0719340  -0.1109692
  -0.1675597   0.1471321  -0.3589343  -0.2080290   0.2408856  -0.3820603
  -0.3529964  -0.0940923   0.0538292   0.0709276  -0.1377926  -0.1010665
   0.2965049  -0.4812400   0.8396570  -0.9729752  -0.4034991   0.3007551
  -0.0457854  -0.1987709  -0.2584890   0.5314316   0.4154031  -0.1156600
   0.0788719  -0.2928789   0.0056230  -0.0143422  -0.0655730  -0.0449397
   0.3900557  -1.2105423   0.4047797   0.1763787  -0.5681921   0.8744919
  -0.1288802  -0.1709638   0.3014037  -1.1364372  -0.7054355   0.3538845
  -0.9931651   0.5136029  -0.4221667   0.4305176   0.0610189   0.4540049
   0.0833108   0.1943027  -0.0419102  -0.1761186   0.5989360  -1.6330850
  -0.2218253  -0.1736020  -0.2629939  -0.6141756  -0.9665947   0.3007826
  -0.2948975  -0.4013922   0.0305435   0.3201804  -0.1835484  -0.1596577
   0.5614403  -0.4363413   0.4411859   0.3278262  -0.0621925  -0.0958356
   0.2082367   0.1268900   0.1269354   0.4407237  -0.0129558  -0.2408839
   0.5599988  -0.1852902   0.0488886   0.1483744   0.1566955   0.0795843
   0.3977207   0.0142471  -1.3235748   0.0763947  -0.2946974   0.0799222
  -0.2362882   0.0885799   0.0820672   1.1160699   0.8381423  -0.2563869
  -0.0660830   0.2859486  -0.5847550   0.2329328  -0.1230068  -0.1835410
   0.6681642   0.2396096  -0.3053012  -0.2143372   0.0902208  -0.4707390
   0.0101313  -0.3973871   0.1727039   0.2688357   0.1269965  -0.1548906
   0.0627653  -0.7957769  -0.0849392  -0.2317348  -0.1679884  -0.0157624
  -0.7687222  -1.3770188  -0.8731322  -0.7461504  -0.1900220   0.1096956
  -0.3082939  -0.0306433  -0.0318456  -0.0317448  -0.1593888  -0.1570471
   0.7575166  -0.0960603   0.1718601  -0.1678371   0.2152215   0.1369126
  -0.3427947   0.8809827   0.0097985  -0.1461967   0.6659973  -0.0278494
  -0.1651643   0.2223540  -0.4614945  -0.0885745   0.5492812  -0.1905579
  -0.4082659   0.1193936  -0.7147455   0.2150003  -0.0710965   0.2199854
  -0.2468425  -0.4660613  -0.0184738   0.2104333   0.6008080   0.1590110
  -0.2025010   0.0989770   0.1574276   0.7658114   0.1226281  -0.0507180
  -1.6505322  -0.0375050  -0.3510357   0.0067537  -0.0151554   0.0017495
  -0.2297111   0.0885000   1.2744039  -0.0947359   0.1817393  -0.2640028
   0.0109355  -0.0843115  -0.0070054  -0.1426257   0.3504360  -0.5217846
  -0.3104699  -0.7283149  -0.6591245   0.1384740   0.1644249   0.1300037
  -0.2768011  -0.3142380   0.0334684  -0.1108475   0.6581275  -0.1899467
   0.1923112   0.0025197   0.2442217  -0.3031163   0.8910913  -0.8992271
  -0.9908584  -0.8793569   0.5401248   0.0501743  -0.1369886  -0.1756411
   0.3441062  -0.5435545   0.2850566  -0.0330487   0.4651649   0.1873518
  -0.0223030  -0.0345595   0.1561340  -0.0020835   0.5844597   0.0185437
   0.1249630   1.2831617   0.4582491  -0.0678217   0.1324899  -0.0095650
  -0.4870080   0.2430823   0.2224010  -0.2142927  -0.1189101  -0.4123475
  -0.0363195  -0.1083651   0.2657150   0.1810777  -0.6805943  -0.4043194
   0.4687346  -0.4767967   1.4617171  -0.2716938   0.2115605  -0.1341187
   0.0508924   0.0962347   0.2384601   0.2884746   0.1131426   0.2453841
   0.0496852   0.0834134  -0.0737319  -0.3349684  -0.7875171  -0.8241463
   0.4162426   0.5789048   0.3941925   0.0101883   0.1194604   0.0296560
  -0.1857574  -0.2033011  -0.1588873   0.1397372   0.2004082   0.2943922
   0.1678867  -0.1087533  -0.0143745  -0.6990427  -1.8901754  -0.3540779
   1.5410712   0.8635337  -0.5417018  -0.0256211   0.1191722  -0.0714309
  -0.3442526   0.2759595   0.2993686   0.2257073  -0.5007397   0.0868791
  -0.0578729   0.1831988  -0.2986374   0.1197818  -1.0627601   0.1227014
  -0.3637025   0.2806126   1.5084956   0.1421051  -0.0144623  -0.1967000
  -0.0624691   0.8566125   0.2690672  -0.5958593  -0.3678445   0.6399013
  -0.0593585   0.0968153   0.0437823  -0.3540750   0.0727594   0.1540199
   0.2558959   0.6563968  -0.2639907   0.3925189   0.4908810  -0.1591749
   0.8037272   0.3944244  -0.4234701   0.1885285   0.5468123  -0.0392960
   0.0646338  -0.0418605  -0.0918956   0.8220455   0.1791311   0.1185810
  -0.3943212   0.1518187  -0.0278205   0.0901668  -0.0362559   0.0389728
   0.5802167   0.3496345   0.3136452   0.1187418   0.5381671   0.5240837
  -0.2373599   0.0039775   0.0373888  -0.2516926  -0.4376176   0.8738220
   0.3882423   0.1814487   0.5429776  -0.0046979   0.1139497   0.0574223
  -1.0700847   0.1240856   0.3539700  -0.4301721   0.0084857  -0.4294945
  -0.1852142   0.0341752  -0.1348133  -0.6797136   0.7822928   0.2856992
  -0.9353168   1.2896297  -0.2907842   0.0931327  -0.3301926  -0.1561354
   1.5294220   1.7789055   0.9677512   0.4789625   0.2371033   0.1475071
   0.0137119   0.1527241   0.0104621   0.3955037   0.0848608  -0.6532651
   0.3903456  -0.1138225  -2.2553427   0.3800314  -0.2410871   0.1098328
   0.4142923  -0.7280531  -0.0681795  -0.1084229  -0.1854004   0.2497088
   0.0955874  -0.1167109   0.2010150  -0.0391119  -0.0006890  -0.0859288
   0.4633453   0.3230820   1.7006076  -0.0348191  -0.2047230  -0.3931106
  -0.9993274  -0.0670721   0.4579315   0.5033782   0.1208684  -0.3960321
   0.3853851   0.2587295  -0.3093409  -0.2707167   0.1289236   0.4630603
   0.7675401   0.4373995  -0.7761677   0.2427039   0.0192290  -0.1334225
  -0.1296208   0.7282187  -0.2109216   1.7378982  -0.4979306  -1.3051900
  -0.0026909  -0.0924939   0.1624881  -0.2775648   0.5009920  -1.1385020
   0.0658227  -0.1129427   0.0982032  -0.2702683   0.1935808   0.0397859
   0.5060754   0.3014902   0.1733936   0.4328043   0.3014149  -0.0333112
   0.0256029   0.2153222   0.2601860  -0.7889380  -1.0724140  -0.5655980
   0.9411525  -0.5152504  -0.7002198  -0.0277959  -0.0266046  -0.0475974
   1.1205298   0.1488212   0.4231017  -1.0593308  -0.1394257  -0.3055572
   0.0817775  -0.0508422   0.0530893  -0.1337429   0.2401662   0.3636178
   0.4072038   0.2185012  -0.0301400  -0.1180213   0.3602269  -0.2441079
  -0.1658786   1.1268867  -0.0352669  -0.1526747   0.9533286  -0.1364948
   0.1237138  -0.1007947  -0.0779017   1.3401859   0.0395907  -0.4079515
   0.1335065  -0.0981006  -0.0865174  -0.1732034   0.0470768   0.3145591
  -0.1304686  -0.4056479   0.8186252   0.5886087   0.5204224   0.2461418
  -0.2785586  -0.0326151   0.0231742   0.7478396   0.0571726   0.2748801
   0.4219761  -0.1364132   0.1181188   0.1082395   0.0522980   0.2832090
  -0.7018427  -0.0639810  -0.9616184   0.2911750  -0.2630016  -0.7675247
   0.2206963  -0.0081151   0.2782328   0.4158260  -0.1775661   0.6458543
   0.0223319   0.1616046  -0.1126750   0.0242980   0.1654764   0.1170905
   0.3374650  -0.3639665  -0.5050147  -0.1554274   1.2433980   0.4021855
  -0.0723179  -0.0331735  -0.1763631  -0.1838237   0.0470930  -0.3526163
  -0.8773957  -0.1042753   0.3384532   0.3882687  -0.0652502   0.1484541
  -0.3026612  -0.8303859   0.0991774   0.6718273   0.1745197   1.3913685
   0.2066563  -0.1551168   0.0170261  -0.2157561  -1.0060769   0.5003279
   0.5062562  -0.3926445   0.5854570   0.0820414  -0.2903475  -0.1991268
  -0.2173110   0.0546107   1.2190485  -0.5021163   0.5000482  -0.0099544
   0.1641265   0.2752634   0.2016120  -0.1468200   0.4349583   0.3902839
   0.2253095   0.4659680  -0.1840395   0.2889159   0.1228105   0.2787691
  -0.5057609   0.8227576   0.3149143   0.3039037  -0.0829976   1.2383456
  -0.3061972  -0.1948170   0.1505091  -0.0585432   0.9741184  -0.4719250
  -0.0344026  -1.3967443  -0.5758966   0.1422249   0.0965870   0.0809332
   0.1227988   0.1392878   0.5123437  -0.3445265   0.2422245   0.8544517
   0.1299948   0.1874249  -0.2249968   0.3908046   1.3932924   0.2105106
  -0.2754025   0.0798739   0.4085614  -0.2919169   0.2855602   0.1093931
  -0.6502461  -0.0361535  -0.4102112  -0.4297299   0.1009166  -0.0650932
   0.0786353   0.1623428   0.2981627   1.1925903  -0.8405563  -1.0033551
  -1.1374141  -1.1225711  -0.5544868  -0.1346423   0.0342065   0.2694711
   0.8042519   0.1052164   0.2599664   0.9100312   0.2462569  -0.2970822
   0.0601454   0.0689576  -0.0962446  -0.5040707   0.6406880   0.3552727
   0.6915148   0.0674620   0.1882210   0.0368344  -0.1258259  -0.1235973
  -0.6731966   1.0496985   0.2587968  -1.0476351  -1.1384481  -0.7200207
   0.0172492  -0.0182825  -0.1737570   0.4639854   0.8018296  -0.0664650
   0.6596871   0.9484244  -0.0624631   0.1905731   0.2168109  -0.0558129
  -0.0258681   0.0646816   0.3412289   0.5264093   0.6315946   0.2151553
   0.3084732   0.3241846   0.2745876  -0.1164348   0.4828983  -0.1797110
  -0.6859531   0.5116902   0.0248208   0.0910426   0.1185180  -0.0307568
   0.9656447  -0.3714355   0.4054326  -0.6620869  -0.9030705   0.3305840
   0.3055991  -0.0803260   0.0168223   0.0280622   0.1806038  -0.5210729
   0.1385364  -0.3089668   0.2416813  -0.2191067  -0.0722704  -0.2941217
  -0.6157622   0.2643502  -0.8216088   0.3256974  -1.3500407   0.2467462
   0.0307048  -0.1609510   0.1349191   0.1574437  -1.3845008  -0.1056237
   0.0956551   0.2408946   0.1160480  -0.0223104   0.2671430   0.0114201
  -0.0821214   0.3197584   0.5065608   0.1043833   0.1825713  -0.2224724
  -0.1122030  -0.0290736   0.1190103   0.1242581   0.4048605   0.3910459
   0.1108062  -0.5210925   0.8053911  -0.2647562   0.1469339   0.2137886
  -0.2605012   0.3910089   0.2296600  -0.3685794   0.0318010   0.3896049
  -0.0961592  -0.2154775  -0.3518744  -0.0627989  -0.3158935  -1.2991663
  -0.1161181  -0.0179217  -0.2941893  -0.0566869  -0.0493716   0.2989155
  -1.1246294   0.6098487  -0.4336919   0.3158294  -1.2805570   0.1137954
  -0.0542617   0.0306022   0.1224217   0.3522273   0.3620815   0.4316328
   0.2669239  -0.4369786  -0.1613023  -0.1967038   0.0468121   0.0667127
   0.0684215   0.1957026  -0.5592331  -0.0219033   0.1287400  -0.5376769
  -0.2723617   0.1147478  -0.2095310  -0.0883868  -0.2930818   0.1886055
  -0.5552580   0.0291490   0.1064423  -0.0709296  -0.0815711   0.0615607
   0.1470181  -0.6188101   0.0035983  -0.5664764   1.1294126   0.9662575
  -0.0996476  -0.0980655   0.0439809  -0.0810981  -0.1753791   0.0116228
  -0.6745024  -0.2028585   0.6869567  -0.2020846  -0.6324608  -0.0527573
  -1.3054035  -0.3850305   0.1336371  -0.1833349  -0.4606500  -0.3760214
   0.0406525   0.1072674  -0.0347603   0.1215141   0.0686644   0.1105359
   0.3267126   0.1254667  -0.0573899   0.0922907   0.0246010   0.0663302
   0.8801996   0.6656434  -0.3777538  -0.6946740  -1.7930345   0.3313174
  -0.3081474  -0.2187152  -0.0407557  -0.6324590   1.2367113  -0.3983534
  -0.1566125  -0.1277638  -0.0772433  -0.1168443   0.0138850   0.0838795
  -1.4298655   0.7577287   0.3168449   0.3204716   0.3421385  -0.5287228
  -0.1095923   0.2318594  -0.0347642   1.3583837  -0.1005146  -0.9678778
  -0.7615849   0.5253558   0.6284881   0.0545816   0.0591066   0.0204980
  -0.2670177   0.5558878   0.9346074   0.0584058   0.1219337  -0.3279887
  -0.0629948  -0.0460209   0.1013061   0.3617084  -1.5012739   0.1531248
  -0.2733498  -0.8468714  -0.3349041  -0.0160472   0.3027954   0.0404695
   0.6233737   0.7640224   0.4783606  -0.0342498   0.4287232   0.6073917
  -0.1989428  -0.1506112   0.0971120   0.7294933  -0.9082172   0.7573166
  -0.5478975  -0.0784244  -0.4941294   0.0577074   0.4969999   0.1392156
  -0.1724960   1.1367603  -1.1494562  -0.1648319   0.6972768   0.0119101
  -0.1494013  -0.0184722   0.0966535   0.1131704   0.0954698  -0.1561916
  -0.3154433   0.5861290  -0.4594688  -0.1917237  -0.1654823  -0.2072253
  -0.5082197   0.2633303   0.9761244  -0.2444301  -0.2289591   0.0338292
   0.0087744   0.1552612   0.0548737  -0.2341732  -0.1343452  -0.9064002
   0.6594855  -0.5821015   0.4655801  -0.0866368   0.0174729  -0.1411771
  -0.4459745  -0.0467632  -0.8107795  -0.0475851  -0.5404225  -0.4014023
   0.0607765   0.3829151   0.0853312  -0.3110059   0.7528685   0.2981904
  -0.3429033   0.0231817   0.1461927   0.0340442  -0.0472329  -0.0807478
   0.3158587  -0.3257965  -0.2210578  -0.0063561   0.6275258   0.6540001
  -0.3535613   0.1105003   0.1436135  -0.6605619   0.0696269  -0.5144818
  -0.3638812   0.2661936   0.1590393  -0.2776599  -0.0772262  -0.1919647
  -0.7243144  -0.2826646  -1.0399920  -1.0415262   0.0681352   0.3451870
  -0.2084613  -0.0051926   0.0417268  -0.1964408   0.0730061  -0.0634866
   0.2664472  -0.5440821  -0.2073546   0.1040925   0.0802552  -0.2003711
  -0.0748396  -0.5123565  -0.1541772   1.0514916   0.3307523  -0.4052206
   0.0586948  -0.1003435   0.3850387  -0.2304069  -0.2239325   0.5594766
   0.8048866   0.2311357  -0.0070878  -0.0740021  -0.1295662   0.1138527
  -0.9391760   0.8082201   0.0417906   0.0255175  -0.1890433  -0.3006958
  -0.0531436  -0.1572417   0.3456106   1.0755942  -0.2333668   0.1568255
  -1.5873423   1.3209932  -0.1402822   0.1970777   0.1956287  -0.1754531
  -0.0405639   1.1302861   0.7604749   0.0956345   0.3686401   0.1826013
   0.0420016   0.0516253   0.0553314   1.1273693   0.9230393   0.1013292
  -0.1547817   0.6257501  -0.5291726  -0.0110399   0.1794485   0.2250447
   0.6591883   0.4539882   0.5154175   1.1158252   0.3302104  -0.0879563
  -0.0797814   0.1489510  -0.2358504  -0.9008388  -0.7349063  -0.0696667
  -0.0020769   0.2297459   0.0048270   0.2586040   0.0656765   0.0168842
  -0.3337535   0.1027499  -0.1645578  -0.5584116  -0.0770617  -0.2219895
   0.0072252   0.1609054   0.1230717  -0.1038999   0.4110000  -0.6700717
   0.1040251   1.2010418  -1.4325647  -0.0795036  -0.2798432   0.0319608
  -0.2236229  -0.2392118   0.1428041  -0.0365672  -0.5139278  -0.0497661
  -0.4864767  -0.0898875   0.0928155  -1.1393965  -0.9247954  -0.4399271
  -0.8959898   0.5044097   0.6872819   0.1281201   0.2890642   0.2943426
   0.1233522   0.0928118   0.5092904  -0.3988818   0.3361359   0.3205062
   0.1115834   0.2696928   0.1332753   1.6780285  -0.4948680   0.4780243
  -0.6140286  -0.9432702  -0.5917918  -0.0320560   0.0088650  -0.1429549
  -0.0434214   0.4666336   0.2821774   1.0968595   0.3531094  -0.2398579
   0.2833458   0.1435623   0.2575692   0.7721425   0.7586640   0.4402594
   0.0829617   0.8150032   1.0390234   0.0030537  -0.0881078  -0.0925318
   0.4918128  -0.0507936   0.1386707   1.1953976   0.1683640   0.2739323
   0.2559226  -0.0977662  -0.0712776   0.0859998  -0.0233047  -0.4293791
   0.1316991  -0.4439926  -0.0347704   0.1418678  -0.2957172   0.3792002
   0.6329461  -0.6193080   0.2026971  -0.4508530   0.5511812   0.1840557
   0.0964698   0.0282008   0.2013538   0.0467347   0.1244366   0.2948644
   0.1927478   0.3149176   0.3163022   0.1923016   0.1405109   0.0862750
   0.1213140   0.2062849   0.0794425  -0.6893411   0.7082342   0.4389793
   0.1402768   0.3163533   0.2770041   0.3136632   0.2390934   0.5702524
  -0.1333986   0.0009796   0.1807683   0.0270024   0.1302503  -0.3325790
   0.3169421  -0.5239620  -0.4413854   0.2430528  -0.2602515  -0.3295540
   0.0290633   0.2641364   0.2577803  -0.1981104   0.3759661   0.4703593
   0.2321390   0.1780775  -0.1782923   0.2157622   0.4524863   0.0638679
   0.9050555  -0.1875678  -0.1965193   0.8830546  -0.4701852  -0.7897805
  -0.1560586   0.3260047   0.2878994  -0.0268072   0.2376633   0.1159948
  -0.2224442   0.5672612   0.3719452   0.2564470   0.3574704   0.0117164
   0.3273675   0.0292895   0.1601491   0.3716436   1.1237200  -1.0486993
  -0.1884576  -0.0658137  -0.1519205   0.5839830   0.1381852   0.1737658
  -0.2137828  -0.5775951   0.1978272   0.1779730  -0.0327188  -0.2609528
  -1.5243113   0.6561703   1.4840970   0.3375200   0.9175244  -0.3991594
   0.2214918  -0.0309141   0.3433226  -0.3222061  -0.0243381  -0.9275596
  -0.5768040  -0.3029954   1.5252345   0.0187665   0.1996121   0.1891020
   0.8303202  -0.2750691   0.2978838  -1.0299274   1.7861905   0.8508141
  -0.0982081  -0.0889454   0.1757981  -0.2606652  -0.1339721  -0.0373046
  -0.7686802  -0.3135497  -0.3656455   0.0801789  -0.0328669   0.0158526
   0.4873424  -0.0196115  -0.0642937  -0.0311571  -0.0143442  -0.2836469
  -0.1633191   0.2923450  -0.3418384   0.2495059   0.7305709  -0.4253505
   0.1931620   0.2770351  -0.0360271   0.2311592  -0.2430888   0.0269877
  -0.0984541  -0.1554324  -0.0223558  -0.2375169  -0.2302726   1.2101380
   0.1639933   0.2372148  -0.0527892  -0.0241178   0.2656929   0.0515234
  -0.5705942   0.1970479   0.4946412  -0.3070421  -0.4726425   0.0518086
  -0.3819034  -0.6926022  -0.6851792  -0.2551357  -0.4297744   0.2889571
  -0.0605606   0.0050096  -0.3638763  -0.9136130   0.7309574  -0.4985110
  -0.7377441  -0.1472122  -0.7218095  -0.1534794  -0.3360987  -0.1067410
  -0.2515778  -0.3444865  -0.4372158   0.2165502  -0.4783593   0.5989975
   0.1644988   0.1219750   0.1424266  -0.8391849  -0.4095957   0.4735272
   0.2060122  -0.1708382   0.4584240  -0.1404333  -0.0898357   0.0523484
  -0.1327082   0.3944471  -0.2223922   0.1183731   0.0702334   0.1082773
   0.0351911  -0.0350107  -0.1910348   0.0243508  -0.4685245  -0.4825544
   0.4914355   0.2374987   0.2047296  -0.0035509  -0.1902398   0.1781562
   0.2966206  -0.5645606  -0.8087769   0.3016750   0.4353275   0.1063247
   0.2633377   0.1001836  -0.0841682  -1.0793232  -0.2767768   0.2898560
   0.6067629   0.1006943  -0.1405066  -0.2566001   0.2120953  -0.3003507
  -0.0538395   0.5555458  -0.8116583  -0.4181513   1.2841854   1.6201310
   0.0835062  -0.1019014   0.1386723   0.2743656  -0.1035256  -0.1781458
   0.2818793   0.2370297   0.5108294  -0.1025964  -0.0762832   0.1307334
   0.2198585   0.1284086   0.4323710  -0.6593482   0.6013783  -0.0948796
  -0.2054520   0.2019349   0.0017737  -0.2757234  -1.7291083   1.3987045
   1.4583960  -0.3120800  -0.5339082  -0.0704866  -0.1977828  -0.0803501
  -0.1202396   0.5666102  -0.4890131  -0.8007252  -0.6083051   0.5979568
   0.3465405  -0.2288832   0.0480698   0.0767397  -0.0746695  -0.0540560
   0.2768977  -0.2147405  -0.0112188   0.1032609  -0.3992756   0.2550361
  -0.5948963   0.4030295  -0.6562981  -0.5049621   0.9991831  -0.6924257
   0.0864198  -0.1974166   0.1188709  -0.2955238   0.2355615  -0.7989105
   0.3392955   0.7200539   0.0803571   0.0537186  -0.0842973  -0.1008744
  -0.8618967  -1.3957432  -0.8285681   1.7283922  -0.3609331  -0.7449087
  -0.0877088  -0.0547883   0.2756228  -0.4646558   0.5647528  -0.0820101
  -0.2803465   0.4205422  -0.0137263  -0.3256314   0.0139867  -0.0419500
  -0.0074382  -0.3204307  -0.3909701  -0.3272629   0.5286163  -0.2947394
   0.2184732   0.0740681   0.0188142  -0.6183638  -0.2267876  -0.5487067
   0.3258398  -0.4520850   1.1114801  -0.0345917   0.0951038   0.0621941
  -0.2439339   0.3548059  -0.9624035  -0.4058556   0.0820756   0.3373634
  -0.0091039   0.0992164  -0.1271957   0.5577467  -1.3226295   0.1090240
  -0.3282769   0.8020248  -0.2403704  -0.2322970   0.0158367   0.0360936
  -0.6297742   0.0615828  -1.2925360  -0.5236621  -0.5522329   0.2565933
   0.3323073  -0.0720857   0.3191720   0.0686726  -0.2364081  -1.0929360
   0.5767191  -0.3602980  -0.0788014  -0.0457755   0.0714690  -0.3650245
  -0.4843396   0.5822098  -0.5777888  -0.8737449  -0.2463340  -0.5864397
  -0.0433005   0.2148620   0.0004211   0.0818054   0.3597021   0.0931387
  -1.1234734  -0.1241096   0.0086002   0.0047663  -0.1242452   0.0822665
   0.2509718   0.1196578   0.2022610   0.2109451  -0.8745501  -0.6913364
  -0.2241063   0.0916362   0.2015916  -0.3678691   0.7463511   0.7307142
   0.3150197  -0.1026772  -0.2276974  -0.0835676   0.2260408  -0.0325775
  -0.2201226  -0.3842799  -0.1889120  -0.4909324   0.6143067  -0.3362410
   0.0624668   0.1604119  -0.4998378  -0.6890166  -0.5775648   0.5557315
  -0.4974128   0.7811571  -0.9332093  -0.1557485   0.1593576   0.0958345
  -0.1258976   0.1374749   0.0275589  -0.2938667   0.3260801  -0.0581511
   0.0200771  -0.2820999  -0.1100674   0.3508113  -0.6478894   0.3874961
   0.9491718   0.4616403   0.6316100  -0.2645948  -0.1609994   0.1312498
  -0.1482167   0.2186561  -0.3564168   0.7562361   0.1523450  -0.0382869
  -0.0739765  -0.2053679  -0.0390729   0.0408669  -0.5200550   0.8010833
   0.3473047  -0.6874308   0.8454820   0.2324827  -0.1412549  -0.2157289
   0.9738540  -0.6025827   0.1516930  -1.1504071   0.2370332  -0.5821868
  -0.1615896   0.3447559   0.0851055  -0.0568856   0.1795132  -0.1504588
   0.3188758  -0.2021053   0.2709608  -0.1052284   0.1870284  -0.0142072
  -0.5019965   0.2230769  -0.1489289   0.0442268   0.3690118  -0.4189903
  -0.2580251   0.0678578  -0.0620919  -0.7041813  -1.0328121  -0.4527581
  -0.0498042   0.3361581  -0.0814788   0.0404111  -0.0312406   0.0551226
   0.0757319  -0.1240996  -0.5084475  -0.2230225   0.0591201  -0.7875215
   0.0498569   0.1330128  -0.1978724   0.7381473   0.4343167  -0.0597405
   0.6501617   0.4954826   0.3341040   0.0649381   0.1879632  -0.1967620
   0.3085501  -0.7038080  -0.9771442  -0.5505575   0.6723252   0.8839672
  -0.0764774  -0.1816930   0.2578783  -0.5688798  -0.8736023  -0.1772417
  -0.5648522  -0.5943301  -0.1368905   0.2093900   0.1855457   0.0810154
   0.7932134  -0.1040067   0.6594784   0.0366443   0.8193698   0.3347764
  -0.1731951  -0.0278618   0.0014938   0.3651253  -0.0088253   0.1348166
  -1.0660632   0.1951887  -0.3610701   0.0209321  -0.3169278  -0.0047070
  -0.1560255  -0.5790859  -0.2614210  -0.1536411  -0.3931700  -0.0108390
   0.2251249  -0.0259457   0.1315499   0.3844194   0.2658807   0.2108031
  -0.1594634  -0.2246826  -0.1097427   0.0483949  -0.0423827  -0.0782727
   0.2041987   0.2820983  -0.2962653  -0.1605931   0.1700716   0.1728625
   0.0965143  -0.3043586  -0.0181447   0.0702141   0.8369864   0.0808687
   0.0742184   0.3612237   0.0385228   0.2337344  -0.0690319  -0.1735937
   0.1274318  -0.4320738  -0.2769148   0.1797476  -0.3926003  -0.2185856
  -0.2609883  -0.2178035   0.2288966   0.0151400   0.8586583  -0.3162621
  -0.4526289  -1.1953118   0.4112806   0.0476436   0.1612982   0.1348301
   0.4804589   0.6395317   0.3068085  -0.4489321  -0.3414369   0.4749806
  -0.2008597   0.0797227   0.1154457  -0.1669373  -0.0407961  -0.5216695
  -0.7346150  -0.5847877   0.5178756   0.0407524  -0.1132251   0.2108684
   0.9749230   0.3854022   0.8631856   0.4604692  -0.3530007  -0.9323868
  -0.0689731  -0.2413155   0.2337353  -0.4705448  -0.2600659   0.5473883
  -0.3323374  -0.2827720  -1.4963638  -0.0848212   0.1833861  -0.1041357
   0.2152019   0.3631467  -0.5714455   0.0940381  -0.3278017   0.0181912
   0.3389700   0.0124159  -0.0207074  -0.3834707   0.5886155   0.3155136
   0.0574915  -0.7637107  -0.2415956   0.1152098   0.0205583   0.0180295
   0.4132778  -0.0089619   0.3351999  -0.1585601  -0.4068369   0.2738960
   0.0124568   0.1260995  -0.3384613   0.3701316  -0.9379811  -0.2540571
   0.0352680   0.7590418  -0.5249166  -0.1602449  -0.0341408   0.2069227
   0.2152143  -0.1651395   0.2757653  -0.5421846  -0.3973770  -0.0878796
  -0.0575056  -0.1596279  -0.4259240   0.1994165  -0.0388648  -0.9497356
   0.1421824   0.2676113  -0.0659027  -0.1777830   0.1737277   0.1926720
  -0.0502497  -0.0722692  -0.2229450  -0.1411976  -0.0217360  -1.0057969
   0.2246763  -0.0805775  -0.1991238  -0.4003451  -0.1458451  -0.0057686
   0.6841027   0.4243518   0.0383330  -0.1311147  -0.2119122  -0.2045597
  -0.5100444  -0.4788450  -0.0068089  -1.0490981   0.6877686  -0.4057484
  -0.2905586  -0.0124226  -0.1681711   0.9502659  -0.0988866   0.5121402
   0.0016830   0.0893941  -0.3721923   0.2421849  -0.1160241   0.1455099
   0.6801553   0.1486399   0.5515108  -0.6308726  -0.4579136   0.0960558
  -0.0997872  -0.0559203  -0.2708115   0.3274567  -0.2887104   1.3458119
  -1.2031522  -0.0335083   0.0119880   0.0849321  -0.3148127   0.0179471
   0.3585256   0.0025023   0.9188284  -0.0255919  -0.0451784  -0.9153084
   0.1072888  -0.0970468   0.2039046  -0.0423577  -0.6469205   0.1064884
   0.3402125  -0.2805640   0.1655462   0.1646819  -0.1002934   0.0652402
  -0.6343510   0.4838541   0.4396132   0.0231103   0.5608536  -0.8817459
   0.3843268   0.2379775   0.2550703   0.9916692  -0.7169371  -0.2872050
   0.2196149   0.4965150   0.3848704   0.0406333   0.0570076   0.2022664
  -0.7648963   1.2976794   1.2119631   0.5591257  -1.1095957   0.2648661
  -0.0423020   0.1080038   0.4697547  -0.0530718   0.2589227   0.1528121
   0.5119213  -0.1632518   0.2498634   0.1923698   0.1400676   0.0604738
   0.5333998  -0.1864896  -0.0572976   0.4979730  -0.0924614  -0.0563133
  -0.1740865  -0.1011376   0.1540116   0.0976195   0.6459147   0.0998492
  -0.8388240   0.1650787  -0.1392991   0.1271085   0.0325628   0.1284661
   0.2043840  -0.2127238  -0.7018974   0.2777269   0.3198590   0.8008890
  -0.2003434   0.0900335  -0.1935464  -0.1169619   0.2777972  -1.0290055
  -0.0349584  -0.0025677   0.4852342  -0.0576833   0.2306158  -0.1887732
  -0.6316891  -0.8455351  -0.9394270   0.5400834   1.6805410   1.0797926
  -0.1730970   0.0208149   0.1762681   0.2520043   1.2223829   0.3469104
  -0.0666714   0.2993238   0.2095183   0.0582753   0.0524178  -0.1293477
   1.3531586   0.0835766  -0.2076174   0.4158380  -0.2466710   0.1981223
  -0.4194229  -0.2164136   0.1054777  -0.3051473   0.5434997   1.0220096
   0.6259854   0.6756063   0.0615245  -0.2241282  -0.2201525   0.0191332
   0.0637328  -0.0947267  -0.0313251   0.3299396  -0.3859097  -0.3279607
   0.0762187   0.1550627   0.0784826   0.7135267  -0.0404251   0.2835962
  -0.9969226   0.3608576  -0.1152944  -0.0366293   0.2483203  -0.2535819
  -0.5276230  -0.1513175  -0.2515929   0.1454937   0.0819362  -0.5381162
   0.0129706   0.0741735  -0.1406830   0.7254397   0.6284299  -0.1593183
   0.0248808  -0.5465977   0.5623196  -0.2585920  -0.0000516  -0.1674918
  -0.8542028  -0.7552784  -0.4911231   0.2866697  -0.2354698   0.9305239
   0.0380518   0.0680132  -0.3702748  -0.6808453   0.2146313  -0.3104064
   0.1620051  -0.4925901   0.0603257  -0.0391547  -0.2757027   0.1098982
  -0.3184581  -0.8147359   0.7791921   0.1300849  -0.1224145  -0.0980256
  -0.0042875  -0.0273985  -0.1422583  -0.2628144  -0.2454662  -0.4161125
   0.0668482  -0.3693573  -0.2558978   0.1357887  -0.0058637  -0.0557300
   0.2446742  -0.1657955  -0.3313428   0.6999323   0.5838603  -0.0723353
   0.0570733  -0.1308713   0.3040738  -0.6495032   0.3629319   0.0668026
  -0.6427171  -0.1032771   0.7348116   0.0882950   0.2161371  -0.2672527
   0.0772907  -0.9072136  -0.1938216   0.7635729   1.0513420   0.3408333
  -0.0071858   0.2684644  -0.1769757   0.0970784   0.0278716  -0.2358364
  -0.1144396  -0.6118539  -1.1691706   0.2201182   0.0273278   0.2054340
  -0.0148130   0.6646564  -0.1598277   0.4957384   0.0624195   1.3995722
  -0.2846166  -0.0809193   0.1727769  -0.5130265   0.1795348  -0.4664742
  -0.7599544   0.1500767  -0.5825006  -0.0560831  -0.2795597   0.0780708
  -0.5567752   0.6121850   0.5223488  -0.2154194   0.2015410   0.5711935
  -0.0014397   0.1672385  -0.3678188   0.3341330  -1.2509163   0.5640692
   0.0119422  -0.7937120  -1.1382866  -0.1592983  -0.1029052  -0.0569381
  -0.7292290  -0.5602569   0.2526314   0.1795120   0.2435903   0.0815484
   0.2350860  -0.0647730  -0.0083690   0.2983163  -0.6836977   0.5578752
   0.1687360  -0.2005870  -0.0260613   0.2708117   0.0880528  -0.1437990
  -0.6838372   0.5661305  -0.4588558   0.8450591  -0.8514888  -0.2582654
   0.0295776  -0.2207873   0.1780546   1.0085940   0.3629348   0.3316547
   0.3485020   0.0554973   0.5466306   0.3448008   0.1175777   0.1085398
   0.1175509   0.1035195   0.4551085   0.4939946   0.7020951  -0.0036737
   0.1973935  -0.1035471  -0.1063892   0.0595430   0.2416881  -0.3725649
   0.3172145  -0.0178813  -0.3275724  -0.3093459  -0.1938316   0.1619723
   0.7409693   0.0109219   1.2222369   0.0080712  -0.8110881  -0.3850313
  -0.0171569   0.0777997  -0.0024111  -0.6944086   0.2139598  -0.5458247
   0.6806765   0.3889904  -0.4799839  -0.3059351   0.0299763  -0.2131253
  -0.6240646   0.6879182  -0.0371794  -0.5694242  -0.6878291   0.3280273
   0.0009801   0.0795960  -0.2134423  -0.2113369  -0.4586889  -0.3080742
   0.9718064  -0.8058520  -1.0227694   0.1057902  -0.1250863   0.0184748
  -1.1172824  -1.3671772  -0.2113542  -0.5094757   0.0088283   0.1896781
  -0.0540011  -0.2700953   0.1236665   0.5161606  -0.2001349  -0.4520657
   1.4493334   0.0071518  -1.7693712  -0.1558683  -0.1699877  -0.1178651
  -0.9058250  -0.2932402   0.7029603   0.7309067  -0.1755449  -0.4570257
   0.0348453  -0.1888460   0.1428361  -0.0645142  -0.0321875  -0.2898779
   0.0325631   0.0440748   0.2433781   0.0099976   0.0749602   0.2863243
   0.1921207  -0.1256674   0.2467169   0.1515696   0.2792235   0.2393299
   0.0634915   0.0505457   0.2765874  -0.2662182   0.0798582   0.7479963
  -0.3811176   0.0864649  -0.0941998  -0.2494779  -0.2233597   0.0094246
  -0.1067038  -0.0490708   0.2305793  -0.0826235  -0.4023944  -0.0266070
  -0.2927753  -0.0263149   0.0581037  -0.3096024   0.0333791  -0.7116234
   0.5094802  -0.7800813  -0.2380879  -0.0433545  -0.0460740   0.0092534
   0.6763454  -0.2791760   0.0849678  -0.3547013  -0.2671944  -0.0417181
  -0.0556150   0.0361655   0.1859678  -0.0266554   1.3299543   0.6238626
  -0.4477737  -0.4568002   0.8378471  -0.0699788  -0.2140823   0.4505151
   0.1370340  -0.0838609   0.5991737  -0.0601661  -0.5651974   0.5917166
   0.1888966   0.0364570   0.1470557   0.1603563   0.1332796   0.1145181
   0.3264602   0.3120733   0.0552908   0.2773424  -0.1064833   0.4016679
   0.6742476   0.2544216  -0.0195702  -0.8465268   0.0284712   0.9452529
  -0.2131782   0.0586444   0.0161895  -0.7680657   0.6016884  -0.4986413
  -0.1241294   0.0107975   0.2917212  -0.2006688  -0.0556733  -0.1459300
  -0.8265376  -0.1120499   0.1802376   0.5273006  -0.1186005  -0.6321497
  -0.0042729   0.2649496   0.0437715  -0.3525239   0.5600359  -0.9064912
  -0.0812100   0.6312591   1.0306455   0.0091440  -0.4730468  -0.1218382
   0.4203700  -1.1258262  -1.0105147   0.5504562  -0.0792680   0.7889433
  -0.1228479  -0.2515329   0.0984060   0.3345217  -0.2677967  -1.3681960
   0.1117989  -0.2137907  -0.7220665  -0.1026784   0.2110225  -0.3385127
   1.1587584  -0.4744816  -0.4019515   0.3912247   0.0918505   0.3581422
   0.1925329   0.0840251   0.2515983   0.3959718  -0.6182456   0.1723663
   1.4137647  -1.4416447   0.4668237   0.0839825   0.0856093  -0.3838588
  -0.4702206   0.1844602   0.6504937  -0.4701683   0.1053380  -0.2655596
  -0.0488329   0.1120159   0.2308262  -0.2720026   0.3992412  -0.1325083
  -1.7292752  -0.2372408  -0.5750769   0.1009241  -0.2446893   0.0459566
   0.8563502  -0.1326387   0.0745283  -0.0865133  -0.2289141  -0.7083130
  -0.0815977   0.0950476   0.1639246  -0.4451391   0.5700908   0.2683258
  -0.2306022   0.5153400  -0.7384865  -0.0333847   0.0109841   0.1483646
  -0.7856648   0.1216160   0.2896592  -0.8562192  -0.3332674  -0.2833581
   0.0607115   0.1254978   0.1968846   0.3490930  -0.7050103   0.1226851
   0.3059053  -0.8106894   0.3258442  -0.0201188  -0.0535176   0.0895040
  -0.2864462   0.1538687  -0.1602640   0.8556433   0.0409913  -0.2478290
  -0.1522797   0.0470068   0.1000217  -0.4419008   0.4691902  -0.8364233
   0.7516589  -0.6014794   0.0145176   0.1406111   0.2080685   0.1444061
  -0.9179219   0.1036444   1.1150025  -0.0920484  -0.9127097  -0.3998420
  -0.0608826   0.1528020   0.2340574  -0.1680379   0.5019888   0.6015013
   0.3860207  -0.5417367  -0.5754783  -0.1720214   0.2726748   0.3260666
  -0.2733343  -0.0073414   0.0862083  -0.3729213   0.9255378   1.2602337
  -0.1043195   0.1860654   0.1593201  -0.3852402  -0.5397063  -0.2806439
   0.5920730   0.4154112   0.4675786   0.1755150   0.2537636   0.0598165
   0.3976043   0.7909390  -0.9225886  -0.0303153   0.4842494  -0.7404625
  -0.1180864   0.0402471  -0.2145940  -0.2325671   0.5317775  -0.3833052
   0.0606342   0.0271778   0.4031995  -0.2931011   0.0095655  -0.0651564
  -0.1308305   0.0371167   1.2845522   0.3900529   1.0506902  -0.6617933
   0.1136870   0.1374818   0.0889668   0.1290799  -0.1216746  -0.2164541
   0.6307720  -0.0379029   0.9200652  -0.2545073   0.0693864   0.1126028
  -1.0185869  -1.1192349   0.2321007  -0.4044999   0.0052243   0.2691949
   0.2090903   0.0250417  -0.0347131   0.2989464   0.3880088   0.9704738
   0.3546099  -0.0757734   0.2296524  -0.0312230   0.0933821  -0.0202186
  -0.6375509   0.1766359  -0.5078642   0.4522693   0.3894046  -0.3132382
  -0.2656110  -0.0147016   0.0308125  -0.5181522  -0.3552922  -0.0372806
  -0.1277080  -0.5335159   0.1357555   0.0778276  -0.1767148  -0.0905298
   0.5051174  -0.6831287   0.2063428   0.2300068  -0.6359612  -0.0290158
   0.1119608  -0.2168308   0.0402662  -1.7917182   0.1135608  -0.1370804
  -0.4667626  -0.1580940  -0.0471714   0.0660303  -0.0778273   0.1050540
   0.1645904   0.3791180  -0.1271123   0.2770891   0.4847168  -0.2891763
  -0.1837588   0.1568545  -0.3163503  -0.1607192   0.1286767  -0.3037289
  -0.4919934   1.2331165  -0.7604697   0.1560279   0.0442102  -0.1853583
   0.4656362   0.2256885  -1.1534310   0.4108126  -0.0351714  -0.2798685
  -0.0457866  -0.0030022  -0.0948067  -0.1576980  -0.1041444  -0.0314200
  -0.4885310  -0.3362301   0.3420528   0.0664247  -0.2129632  -0.2288416
   0.1440493   0.6274536   0.9525048  -0.3986384  -0.7521834  -0.3417223
   0.1198488   0.0133723   0.1087457  -0.7305807   0.1650894   0.6579872
   0.0520115   0.6272664  -0.4979601  -0.1383715   0.0868528  -0.2769167
   0.0761646   0.2513635  -0.2052716  -0.1442229   0.1590753   0.3185912
   0.0642892  -0.1673601  -0.0544916  -0.1661767   0.0577849   0.0063059
  -0.4912470   0.3297166   0.0390438   0.2856406   0.2907171  -0.1906626
   0.1373219   0.6336546   0.1293900   0.8612226  -1.1194509   0.0564312
  -0.2347526   0.0848293  -0.1471832   0.5250282   0.1632673   0.3869957
   0.7118033   0.1182768  -0.4297170   0.2028028   0.2683291   0.0885969
  -0.1037357   0.1028136   0.0792332  -0.0577824   0.2218896  -0.5572959
   0.0016652  -0.3505686   0.0182571  -0.3064985  -0.2020914  -0.2387367
   0.8959333   0.4331696  -0.3034925   0.0826337  -0.4599172  -0.1781191
   0.4430084  -0.7327028  -0.0561464  -0.0159593  -0.3373710  -0.3593610
   0.2020661   0.1087113   0.0577167   0.2829476   0.0824275  -0.1616984
   0.2335677  -0.2651459  -0.3828021  -0.3380283  -0.0104347   0.0580700
   0.1023462   0.1363976  -0.0086516  -0.5752512   0.0459696  -0.3273981
   0.1091809  -0.0958893  -0.0243747   0.2735937  -0.1163955  -0.0986102
  -0.1554664   0.0351694   0.1324942  -0.0803162   0.0406391   0.0268274
  -0.8845001  -0.4412021   0.2806019   0.1095290   0.3911577  -0.8369514
   0.1725035   0.1778935   0.2399672   0.9168360  -0.0602507   1.1196634
   0.2322228   0.5854280  -0.2859179  -0.0181906   0.0326621   0.2734225
   0.3077164  -0.4100608   0.3376302   0.2087051  -0.1201780   0.3189739
  -0.0312572  -0.0442713   0.2478879   0.8448624  -0.1004595  -0.2451979
  -0.3603093  -0.1199613   0.7803783  -0.0817461  -0.0615321   0.0421017
   0.2308858  -0.8962451  -0.3057311  -0.4443503   0.5614239  -1.0550908
  -0.3504287   0.0901369  -0.0645896   0.0058170  -0.4811717   0.2265704
   0.0704221   0.3809578   0.1188404  -0.0266148   0.3394845  -0.2478607
  -0.3245915  -0.0728665   0.0605417  -0.1594503   0.1098301  -0.7613665
  -0.1344091   0.1643911   0.1075719   0.2608914  -0.3511192  -0.2947986
   1.0002890   0.3478118   0.1691597  -0.0135029  -0.0008833   0.0000448
   0.0407304   0.4343081   0.7338673  -0.6624408  -0.0629325  -0.4012050
   0.0583219  -0.2146147   0.0787353  -0.4512914  -1.1706178   0.4201638
  -0.7376660   0.6752501   0.2761311   0.0257458   0.0523151   0.0992166
   0.2270719   0.2234106  -0.0663153  -0.4164617  -0.1715533   0.8683600
   0.1120000   0.0061323  -0.1576547   0.6382978   0.3807488  -0.2523386
   1.0767749   0.6339007  -0.3700560  -0.0444821  -0.0293718  -0.0883559
  -0.2936124  -0.0202092  -0.2197485  -0.3678051   0.5446501  -0.2584751
   0.1378742   0.1233771  -0.0455479   0.2529831  -0.0574008   0.2265188
   0.0883386   0.2290394  -0.1995735   0.1391496   0.0174246   0.2193943
   1.0876487  -0.7986259   0.8492702  -0.8945372  -0.6556152  -0.6039006
  -0.0379341  -0.1992071   0.1805232   1.8429271  -0.7437520   0.0472120
   0.1458542   0.2439476  -0.6180628   0.0904931   0.1321158  -0.0529903
  -0.1429398   0.4918930   0.8051361   0.5475506  -0.7602933   0.4881079
   0.0555310   0.0041568   0.0453485  -0.3473580   0.2268271  -0.3286026
  -0.4623451   0.4776485   0.5600851  -0.1356974  -0.2016122  -0.2770974
   0.2942622  -0.1789327  -0.8721461  -0.3850853  -0.6859118  -0.2206477
   0.2311678   0.2097323   0.0199530   0.6867314  -0.9763446   1.3634053
  -0.5418254   0.3884252  -0.2587607  -0.4098010  -0.1735433  -0.0800962
   0.1485740   0.6377904  -0.4661586   1.1397907  -0.2306266   0.5665583
  -0.2831670  -0.0426162  -0.0812847  -0.2403661  -0.5384350  -0.1585822
  -0.5602181   0.1500231   0.0735741   0.0001839   0.0248930   0.0834763
   0.1322114  -0.4016214   0.0848101   0.0636766   0.3536431   0.7800390
  -0.1604330   0.0467939  -0.1167628  -0.3552786   0.1036339   0.3399549
  -0.0669551  -0.0184894  -0.3829083  -0.0167206   0.1673306  -0.0891612
   0.2179107  -0.2966243  -0.0016269  -0.6966168  -0.0907302  -0.1241533
  -0.2105072   0.2029534  -0.3794837   0.0231978   0.5085392   0.2633251
   0.1834137  -0.4799321   1.0968032   0.0856661   0.1207319  -0.1929778
   0.1805738   0.1290807  -1.2996085  -0.6437193  -0.5960759  -0.0090207
   0.0945855  -0.1778038  -0.0979280  -0.3031854   0.5755369   0.4303194
  -0.4878647   0.1416693  -1.0360703   0.1513001   0.1901029   0.5129686
   0.4477062  -1.0129604   0.9623054  -0.0711490  -0.1780730   0.7042910
  -0.0952367  -0.1523797  -0.1507836  -0.1563425  -0.1182188  -0.1141501
   0.0044709  -0.7689834   0.2647916   0.0838787   0.1989921  -0.3672471
   0.0402102   0.6550186  -0.8284980   0.0325688   0.2253064  -0.5119204
  -0.0233996   0.0657291   0.2511325  -0.1162031   0.2308342   0.1174808
  -0.3968382   0.3447529  -0.3060057   0.0913978   0.2503235  -0.0369185
  -0.4252948  -0.5468294  -0.8029338   0.4921589   1.0268262   0.2398187
  -0.1346959  -0.3479324   0.1059951  -0.5221533  -0.3009306   0.1602889
  -0.2768388  -0.3000611  -0.1519463   0.0094918   0.1800673  -0.4214626
   0.3343717   0.3113924  -0.7338608  -0.1413399  -0.0351357  -0.1262951
  -0.1769457   0.0492401   0.2091872   0.0666203  -0.2669469   0.0391692
  -0.9145816   0.6151784  -0.5868319   0.0838921   0.2283253   0.0686117
   0.2663779   0.9691123  -0.5461703  -0.0054157  -0.1583351   0.4552479
   0.0717845   0.1818593   0.3887724   0.5117964  -0.7929914  -0.8377990
   0.9916337   0.6318865  -0.2044320   0.0227651  -0.0108851   0.0696938
   0.1925585  -0.0887901  -0.1670168  -0.7019581  -0.2150630   0.3039700
   0.1383892  -0.0406176  -0.1203959  -0.1020162  -0.3166937   0.5559616
  -0.1711706  -0.5899570  -0.7006603  -0.0634642   0.2167125  -0.0052776
   0.6926991   0.8354700  -0.4965506  -0.0068398   0.3555372  -0.1643799
   0.1911328   0.3574980  -0.2571354   0.2730774   1.3496052   0.1702127
   0.1846363   1.2620630  -0.2840850   0.0313851   0.1671355   0.1492907
  -0.1569524   0.0380189   0.4712172   0.1605658   0.3050361  -0.6006602
  -0.1471000  -0.2798376   0.0602707  -0.3592939  -1.0357753  -1.3300721
   1.3758665   0.2470224   0.3220594  -0.0121329   0.2174472   0.1386599
  -0.5608816   0.7257781   0.2492056   0.1624380  -0.3406866   0.2073052
  -0.1597047  -0.0497636   0.2530821  -1.0732435   0.7325262  -0.3720190
   0.0696026   0.2944480   0.1421854  -0.1925675   0.2331358   0.3120866
  -0.1324354   0.1299564  -0.8328070  -0.1966327   0.2272979  -0.0872826
  -0.1103309   0.0256119   0.0218313   0.7310986   0.2658005  -0.9114556
   0.7403689  -0.9495396   0.4191881  -0.0215432   0.1670135   0.3100834
   1.2715573  -0.9900755  -0.1823582  -0.9915166   0.3549315   0.6601147
  -0.1310655  -0.3385007   0.1226247  -0.8904678   0.4683518  -0.3017745
   0.5755920   0.6481489  -0.3447669   0.1228416   0.1951347   0.3386303
  -0.3358880   0.2392760   0.4301305   0.4572848   0.7512509   0.8602468
   0.2154794   0.1863030  -0.0920268   0.4745345   0.0995187   0.1111454
   0.7044048   0.2534198   0.2366786   0.1069905   0.0498437   0.0148838
   0.4542559   0.1795549  -0.1576238  -0.0110353  -0.7248331   0.1228363
   0.0279580   0.1993102  -0.1753245  -0.0130924   0.1302110  -0.1190631
  -0.2659517  -0.4071998   0.3826650  -0.2519115  -0.1249582  -0.1838428
  -0.4016176  -0.6035173   0.1663884   0.2458293  -0.1095787  -0.4960795
   0.0382303   0.0109561   0.0627486   0.1365226  -0.3585458  -0.1595504
  -0.3230013   0.6639874   0.4572538   0.0116760   0.1476058  -0.3106543
  -0.5760626   0.0437179  -0.3622631  -0.2208390   0.0986878  -0.2083723
   0.1094891  -0.0121973  -0.2540434   0.5773335  -0.6508691   0.2666916
   0.6378710   0.1908567  -0.0890055   0.2087595  -0.3558201   0.3559232
   0.3831595  -0.2011505   0.1237203   0.1715075  -0.7161582   0.4169732
  -0.6112441   0.2140814  -0.0801334  -0.2440053   0.1707091  -0.0640945
  -0.5253963   0.1829054  -0.0437077   0.2547705  -0.0599611   0.1977366
   1.1613460   0.1093634  -0.1134299  -0.1842486   0.4812007  -0.0931369
   0.1148395  -0.2198672  -0.0478558   0.3653572  -0.7183654  -0.5441627
  -0.2306401  -0.4185686   0.1163868  -0.0340443   0.0900652  -0.2331121
   0.5422570  -0.0665030   0.3923326  -0.8796320  -0.8065528   0.3860012
  -0.0125539   0.0073058  -0.1490357   1.5586410   0.9082967   0.3033319
  -0.4123082   0.2154564  -0.1897867  -0.0421481  -0.0391318   0.2453603
  -0.5581142  -0.2224690   0.2442947   0.3050207  -0.1453205   0.3845012
   0.0278897  -0.0504062   0.0876898  -0.3395728  -0.0828103   0.7230577
   1.0638384   0.0798314  -1.1405538   0.0812078  -0.2546810  -0.1322383
  -0.1183483   0.2348522  -0.4409081   0.2228976  -0.1125098  -0.1840674
  -0.2268143   0.2052501  -0.0013496   0.2002776  -0.0093399   0.6117663
  -0.4313810  -0.4811294  -0.4772892   0.1706604  -0.0130154  -0.0883334
  -0.6070550   0.9788077  -0.6323983  -0.9148212  -0.2641556  -0.8103316
   0.2119358  -0.0532105   0.0704392  -0.2126479  -0.1482918   0.9665834
   0.3026959  -0.9959696  -0.2606243   0.2389898  -0.0412724  -0.0866493
   0.0015111   0.1583180   0.0579874   0.6496897  -0.8179419  -1.0306067
   0.1853532   0.0909974   0.1132569   0.1277936  -0.2244720  -0.5366471
  -0.0747749   0.3783767   0.3127583   0.2101395  -0.2034092   0.0056421
   0.3263585  -0.6411924  -0.2766389   0.5499323   0.5805286  -0.2758208
   0.1329221   0.0391024   0.0251100  -0.1010870   0.1532940   0.0064768
  -0.5100653   0.9376344   1.0090559   0.0545744  -0.3276948  -0.2984983
   1.4808168  -0.7252458  -0.6160189  -1.2025203   0.5471376  -0.3971407
   0.2635574   0.3645558   0.0464537   0.2908064  -0.7431643  -0.6483459
   0.2921547  -0.3867842  -0.4362810   0.2392259  -0.2063187  -0.2442175
  -0.2516117  -0.5148267  -0.9331611  -1.3304068   1.0282127   0.3134476
  -0.1328298  -0.2345738   0.3782579  -0.1367717  -0.0234229  -0.0316912
  -0.2769932  -1.0124140   0.5456984   0.1052494  -0.0804740   0.0976549
  -0.5035669  -0.2902494  -0.0422317  -0.0483763   0.1026692  -0.2437727
  -0.1562179   0.1066292  -0.0448137  -0.1670672  -0.0092210   0.6814892
   0.1032172   0.2311781   0.0049588  -0.3156079  -0.0047789   0.1342267
  -0.0950244  -0.8416980  -0.3381529   0.0412917   0.1347035   0.5124193
  -0.1678693   0.0200624  -0.0876014   1.1854689   0.0837440   0.3051449
   0.6734362   0.1116153   0.7178824  -0.1484271   0.1796668   0.2867912
  -0.7599238  -0.0690970   0.3606322   0.0403902   0.1507662   0.1626581
  -0.0205550  -0.1098722  -0.0031443  -0.5077271   0.0470978   0.8188278
  -0.1816616   1.1378450   0.2346652  -0.2804312   0.1703003  -0.1779195
   0.0812609  -0.8155445   0.2857892   0.2163439  -0.4687993  -0.8884077
  -0.1022774  -0.0745603   0.0431799   0.6664394   0.3400156   0.6791575
  -0.7007784  -1.2739418  -0.3834980  -0.3296323  -0.1801903   0.1543587
   0.9804358  -0.6371737   0.1633349  -2.2890150   0.5499414   0.1414830
   0.0516298  -0.1780198  -0.1736646  -0.3681146  -0.2560743  -1.1231450
  -0.7634156   0.2584237   0.3464893   0.1118181   0.1364729  -0.1164067
  -0.1670490   0.0308852   0.1119729   0.5234427  -0.2727211   0.5139425
  -0.1134998   0.3053671   0.2198798  -0.4673098   0.0014951   0.6401328
  -0.7275688   0.0717981   0.2799631   0.1817641  -0.0047128   0.0186102
  -0.4017526   0.7762986  -0.1792855   0.8296182  -1.5014298  -0.7649986
  -0.0982947  -0.0400585  -0.0966981  -0.3420591  -0.4727134   0.5200502
   0.1032346  -1.1528339  -0.9114609   0.1430684  -0.2367041  -0.0640538
  -0.0870297  -0.6432887   0.3262664   0.3468749   0.3192043  -0.1812541
  -0.0208445  -0.0382708   0.1003696  -0.7070686   0.6743427  -0.4796687
  -0.4800413   0.8160817   0.9936197   0.1184336  -0.1620348  -0.2798325
   0.3933425  -0.4400081  -0.5253265   0.0532199  -0.2549186  -0.5743934
   0.2325818  -0.0452609   0.1643472  -0.1210948  -0.2306075  -0.4044256
   0.9467625  -1.2429222   0.2517875   0.2205252  -0.4073469  -0.2676875
  -0.1106184  -0.7006837  -0.6735557   0.4296353  -0.2128014  -0.2651199
  -0.0029808  -0.0795254  -0.2757184  -0.6731343  -0.1181257  -0.0513850
   0.4198683   0.2796394  -1.0077295   0.1852347   0.1400415  -0.2206461
   0.1045435  -0.3680519   0.4265897  -0.5758967   0.3861205  -0.4319913
   0.1723020   0.2100350  -0.3097390   0.5804880  -0.4833512  -1.2896951
   0.5948586  -1.9260169  -0.6379077  -0.0902415  -0.1703686   0.1617185
  -0.5989682   0.1214712   0.9689242  -0.5026831   0.4407373   0.8052910
  -0.2107723   0.1565969  -0.0631963  -0.1550316   0.1007477  -0.1930587
   0.0713700  -0.3047240  -1.5260341   0.0693899  -0.1581542  -0.1413527
  -0.3430908   1.0153832  -0.2312785   0.0943734  -1.0741202  -0.9424793
  -0.0859968  -0.1732353   0.0258302  -0.3708960   0.1254469  -1.0416055
   0.0225795   0.0999619  -0.6529355  -0.1600480   0.2553751  -0.0812735
  -0.8561287  -0.3256757   0.4798639   0.4751856   0.1526572  -0.3159451
   0.1028465   0.1159578  -0.2855468  -0.3704830  -1.4080033  -0.2960811
   0.2511895  -0.3002969  -0.0944783   0.3116691   0.0619461  -0.0516354
   0.2843054   0.8491647   1.1244368  -0.1131403   0.7500203  -0.6930957
   0.0887761   0.0326794  -0.3073912  -0.9073116  -0.5818689   0.5519507
   0.3459552   0.1822426  -0.3707160  -0.2218130  -0.0568919  -0.0661323
  -0.1565555  -0.0118580   0.0155116  -0.0351765  -0.1192814  -0.2659687
  -0.3463207  -0.0746773  -0.1628123   0.1609020   0.7290813  -0.6629309
  -0.1708496   0.2443089   0.0523631  -0.0690355   0.5014736   0.4192219
  -0.0820626  -0.2116643   0.5047082  -0.5226553   0.6899612   0.4178283
   0.1079178  -0.0485632  -0.0252317   0.4883453  -0.2393912  -0.3999658
   0.1263256  -0.6231737  -0.9416961  -0.1057972   0.1506987  -0.1341090
  -0.1336430  -0.0074013  -0.4412741  -0.2509138  -0.4612683   0.1343596
   0.2049489  -0.2604530  -0.1068094   0.8697291  -0.4652410  -0.3548674
  -0.4527891   0.3884983  -0.1664140  -0.1907240   0.1449892   0.0815977
  -0.7791769  -0.4569157   0.0598208  -0.4772618  -1.2593008  -0.4114141
   0.0236593  -0.2403586   0.0348661   0.2878901   0.5954469   0.1779659
   0.0471374  -0.3410738  -0.8460246  -0.1223004  -0.3386695   0.0587500
   0.4504717   0.5145802   0.2392161   0.0146467  -0.0008329   0.0069756
   0.1671491  -0.3395706   0.4094070  -0.1420640  -0.5868215  -0.0774068
   0.0046894  -0.7552599   1.0209223  -0.2522246  -0.0827729   0.0521259
  -0.3180585  -0.3295044  -0.1947175   0.2371625   0.8371344   0.9985550
  -0.1043243  -0.0048239  -0.4458610  -0.3593688  -0.1797494  -0.5976067
  -0.1983158   0.4543912  -0.4769954  -0.0155055   0.0556377   0.0768190
   0.1965331  -0.3555303   0.2419364  -0.2027013   0.1703147  -0.0968390
  -0.1192137   0.1302824  -0.2877471  -0.4066276  -0.3843792  -1.2516150
   0.0824271   0.6026595   0.5277614  -0.0303146  -0.1489804   0.0896651
   0.0172244  -0.7591800  -0.2148203  -0.1259669   0.0322231   0.4111963
  -0.2195626  -0.3106387   0.2457886   0.3342744   0.6422476  -0.0267058
  -0.7003263  -0.5736026  -0.5986732   0.0702072  -0.3202435   0.0091159
   0.2265760   0.2364759  -0.2658570   0.4824553  -0.0183228   0.3578578
  -0.1287699  -0.0663042   0.0309397   0.0463017  -0.3782587   0.3346444
   0.0551246   0.3211297  -0.0102862   0.2055750   0.0309839   0.0667623
  -0.3276653   0.7596068  -0.3076753   1.5331502   0.0552222  -0.7477955
   0.2151358   0.1436189  -0.0413356   0.4332184  -0.1279529  -0.2452881
   0.0060470   0.1858871  -0.7047772   0.0532802   0.0957024  -0.0958528
   0.1333633  -1.0306724  -0.7199986   0.1908066  -0.9374856  -0.6387625
   0.1090080   0.0307949  -0.1925752  -0.3725199  -0.6959516   0.1107330
   0.6414391  -0.2949894  -0.6794832   0.0815170   0.0846795  -0.0900205
   0.1547250   0.1298498  -0.3153763   0.4105766   0.0371630   1.6992900
   0.1418855  -0.1855683  -0.0226530   0.9068756  -0.2585007  -0.3462703
   0.4871370  -0.4150985   0.1843353  -0.0217820  -0.0053088  -0.0786921
   0.8485006   0.5311303  -0.5954282   0.1424872  -0.4463117   0.1629036
  -0.2694900  -0.1573930  -0.0728281  -0.2936416  -0.0744914   0.0129433
  -0.1507988  -0.2839901   0.1329842  -0.1891932  -0.0080766  -0.0289518
   1.4243910  -0.9967094   0.9329622  -0.9110611  -0.5498441  -0.5510242
  -0.2822095  -0.2676299  -0.2712953   0.1518925   0.2353480  -0.5079691
   0.6277100  -0.6819412  -1.2704557  -0.1168391   0.2472115   0.3637667
   0.2689412  -0.1423893   1.1381694  -0.5809709   0.2162560   0.7111834
   0.1492344   0.2801956  -0.1414669  -0.8012391  -0.0899413  -0.0460668
  -2.4002163   0.2168500   0.2922691   0.1152653  -0.0113752   0.1853455
  -0.4454858   0.3652674   0.3656704   0.1956237  -0.0160211   0.2182736
   0.1474203  -0.0823382  -0.1192312   0.7249097   0.1225413  -0.2775766
   0.3457844  -0.0768417  -0.1919564   0.1156258   0.0871161  -0.0990908
  -0.3295773   0.2791288   0.7298291  -0.2208126   0.1334981   0.3569960
   0.2311661   0.1660709   0.1222860   0.2801387   0.0708292  -0.5042012
   0.0470578   0.1146308   0.8390009  -0.0951209   0.4225842   0.2039467
   0.4204157   0.3073627  -0.3292095  -0.9418206   0.5487144   0.2278764
   0.0263427   0.0148733   0.1230212   0.0145015   0.0509975  -0.3946339
  -0.0771762  -0.0407556  -0.1051457  -0.4756154   0.0392858   0.3377330
   0.0041910   0.0138158  -0.0428349  -0.1835858  -0.7044682   0.1152405
   0.1070810   0.1008106   0.1907948   0.3211909  -0.0659923   0.2167153
   0.4106265  -0.3459252   0.1455849  -0.0017007  -0.0727186   0.2331390
  -0.2232173   0.9149405   0.2377674  -0.4903407   0.0940001  -0.2627004
  -0.2249514   0.3214414  -0.1984088  -0.8788292  -0.6244587   1.3282762
   1.0714995   0.1869938  -0.2922283   0.3270135   0.0445786   0.1534010
   0.2603159  -0.3983720  -0.2688112   0.2496390   0.9371313   0.4228341
   0.2378756  -0.2340044  -0.2158454  -0.4852707  -0.8491032   0.2534758
  -0.4311470  -0.4425316  -0.7436832   0.1314282   0.3558444   0.0372719
   1.1652067  -0.3342610  -0.1515991   1.8673495   0.4427991   0.3274617
  -0.2921292  -0.2659482  -0.0811287  -0.2641995  -0.5791238   0.2339373
   0.0124084   0.7095990  -0.7822138  -0.1020189   0.0742612  -0.0517417
   0.1001846   0.4586315  -0.1361850   0.1500136  -0.1967149  -0.2837806
   0.1586315  -0.1110931   0.0572585  -0.2159208  -0.6141418   0.1931872
  -0.1296583  -0.2913252   0.0658129   0.4732971   0.0734703  -0.0048442
   0.1068138  -0.3580873   0.3685313   0.8919842  -0.3523133  -0.2613355
   0.0267876  -0.0841422   0.1965134  -0.4251092  -0.6776283  -0.4276538
   0.2087253   0.9938785   0.3851589  -0.1051951  -0.1275062  -0.0611250
  -0.2427006   0.1752596  -0.4809445   0.2139571   1.9496956   0.0852544
   0.2396098   0.2252715  -0.1030465   0.8435530   0.7495000  -0.2192542
  -0.2898004   0.3739811  -0.5130489   0.0238735   0.0137412   0.2081396
   1.5893029  -0.7471554  -2.3399727   0.6019688  -0.4079733  -0.5958358
  -0.2229408  -0.1073920  -0.1140124  -0.0395536   0.3172581  -0.3029903
  -0.8536755  -1.2672254   0.2560158   0.0581131  -0.3764396  -0.2990379
   0.3753085  -0.2346677   0.1682289  -0.0364338  -0.7282474   0.0690321
   0.2186032   0.0232039   0.0900638   1.3903981  -0.3643554   0.5230193
  -0.3275165   0.0496458   0.0318377  -0.1866392  -0.1638396   0.1469588
   0.4711017   0.0554818  -0.1180611  -0.0849575  -0.9286923   0.0432310
  -0.0972451  -0.1719004  -0.0863908  -1.1914672   0.4477950   1.5092726
  -1.2086227   0.0484767  -1.3474694   0.2286969   0.0413429  -0.1864552
   0.2028589  -0.2493527  -0.3216982   0.0319367   0.3821106  -0.3531101
   0.1980856   0.3134604  -0.0394459  -0.1302919   0.0514061  -0.1914552
   1.0956340   1.0932910   0.3981635   0.1128889   0.2069287  -0.2422109
   0.1114328   0.0498241  -0.1139151   0.3758809  -0.1069243  -0.4903518
   0.0728691   0.3183072   0.3333240   0.4277777  -0.2986029   0.5756115
   0.2651230   0.6334401   0.3221165  -0.1144477  -0.1301747  -0.1591173
  -0.5245831  -0.4499373   0.4160180  -0.2262405  -0.1664465   0.7323238
   0.1659209   0.2048919  -0.1735835   0.3255010   0.3725651  -0.5372219
  -0.7383747  -0.2634340   0.1334004   0.1779214  -0.2612015   0.3266980
  -0.2338422   0.1118582  -1.1336343   1.9158501  -0.0896231  -0.8411357
   0.0880260  -0.1743816  -0.2130277  -0.5811048  -0.5715759  -0.3027499
  -0.3269677  -0.2068381  -0.7232758  -0.0439226  -0.1264409  -0.0186753
   0.2186067   0.6293114  -0.0630186  -0.3582635   0.6347636  -0.4656837
   0.2287354  -0.0842914  -0.0588034  -0.1686876   0.6141005   0.1103069
  -0.1438032  -0.6529572   0.3858505   0.5514345  -0.0795145   0.2402293
   1.1420916   1.2129803   0.6764954   0.9782874  -0.2517474  -1.2167504
   0.2426205   0.0482829   0.0566464   0.3740362   0.2075032   0.1132651
   0.2860624  -1.2236333  -0.9108814  -0.1417255   0.2311026  -0.1830504
   0.7195128   0.7330193   0.1388917  -0.3081280   1.6113389   0.3970474
  -0.1887391  -0.2718965   0.1205523  -0.7240062  -0.1841005  -0.5135547
  -0.4885794   0.1678482   0.2441931   0.5511741  -0.1430302  -0.2944604
  -0.2420167  -0.5208951  -0.2826433  -0.3261020  -1.0591032  -0.5670811
  -0.0119868   0.1054647   0.1602313  -0.1205946  -0.8168946  -0.4614727
  -0.2982545   0.2969683  -0.0830749  -0.0080813  -0.0008709   0.0347076
   0.1758206  -0.3561533  -0.0171388   0.4402711   0.3883216  -0.6561422
  -0.2835712  -0.0479112   0.3413277  -1.0627067  -0.0304898   1.1145446
   0.5948884   0.6182588  -0.0469383  -0.1850171  -0.1666074  -0.1072938
   0.2551811  -0.5279882   0.5075776   0.0161965  -0.3902827  -0.0305210
  -0.2713032  -0.3586167   0.0444456  -0.2125951  -0.2875474   0.6787438
  -0.1394683  -0.2456384   1.0312626   0.3478219  -0.0863542  -0.0064151
  -0.2098299  -0.1156140  -0.2977573  -0.6149576   0.3074459   0.3986157
  -0.0831394  -0.0236112   0.2828706   0.1773127   0.3104525  -0.4967172
  -0.2581067  -0.2123385   0.7466041  -0.1293059   0.1058005  -0.2993091
  -0.1177121  -1.2448273   0.3483573   0.4680383  -1.0100827   0.2730014
   0.1261456   0.0776943   0.1201454   0.7050286   0.3599508  -0.8513024
  -0.6170592   0.4619816  -0.2926291   0.4585562   0.0275702  -0.0436678
   1.1578371  -0.4596856   0.3610690   0.4741114   0.7019385   0.9544699
   0.2206594  -0.1044264  -0.1220316   1.6352498  -1.5651295   0.5893161
   0.8369140  -1.2201840   0.3363501  -0.3313592   0.1673468   0.0670261
   0.6072311   0.4237384  -0.3535876  -0.0151317  -0.6855162   0.7059516
   0.0216869   0.1131335   0.0485979   0.3146099   0.0470403   0.0125021
  -0.0164883   0.2022772   0.1345834  -0.0768018  -0.4781298  -0.1272523
   0.1593346  -0.7040604  -0.1487122  -0.2000097   0.0367274   0.8891743
  -0.2631373  -0.1439692   0.0870471  -0.1557550  -0.5012823   0.3893078
   0.0504696  -0.2285293   1.0009397  -0.1907827  -0.0303698   0.0831533
   0.6323358   0.2050623   0.0907057  -0.0018271  -0.2639413  -0.2570790
   0.2270076  -0.1687118  -0.0664950  -0.3768466  -0.6385578  -1.2418188
   0.9179654  -1.0457229   0.3272978   0.1282389   0.0799361  -0.0045080
   0.0972194   0.1528885  -0.9896368   1.3915355   0.4538354   0.5221710
  -0.1778023   0.1503013  -0.0089254   0.6401305  -0.8900677   0.3608950
  -1.0251737   0.3502484   1.0733292   0.0121397  -0.2793376  -0.1099464
  -0.7797421   0.6541245   0.2025682  -0.3496860   0.1477046   0.0350770
   0.0795499   0.1429282  -0.1509478  -0.1380983   0.2334186  -0.3956200
   0.8543377  -0.5150538   0.7667949  -0.2887384  -0.1426309   0.1467083
  -0.4762592   0.6324914   0.6523643  -0.0678886  -1.3816298  -0.4759788
   0.5232479  -0.1763538   0.0602734   1.0105195   0.6851800  -0.3872948
   0.0296617  -0.5342566   0.3546475  -0.0908789   0.2425543  -0.2668866
   0.7180846   0.1333258  -0.2703301  -0.1077969   0.2667275  -0.2352998
  -0.2975828  -0.2153400  -0.0945515  -1.1086318  -0.0201569  -0.9202775
  -0.7442292   0.5932762   0.6560101   0.2691131  -0.0694190   0.0077470
   0.1444308  -0.1642855   0.2257001   0.3121155  -0.1471970  -0.4654316
  -0.3011170   0.1238253  -0.0885507  -0.5294754  -0.3885934  -0.4775073
   0.0014745   0.6473441   0.5395851  -0.2923994   0.2360761   0.0107515
  -0.2927183   0.2167502  -1.4425600   0.1561253   0.1102476  -0.0812882
   0.0024586  -0.0842216   0.1052914   0.2656177  -0.0645470  -0.2970905
  -0.0190906  -0.7920211   0.4426607   0.0038251   0.4106471   0.2252283
   0.3572776   0.5454940  -0.0410188   0.4212071   0.3232959   0.9222349
  -0.0005148  -0.2956131  -0.0978835   1.0550987  -0.1890423  -0.2119732
   0.2212467  -0.8018897  -0.8493366   0.6563904  -0.0291754  -0.0190109
   0.3674186  -0.3017404   1.3127171   0.3290508   0.4267189   1.1367942
   0.2895341   0.3764172  -0.1866246   0.0288879   1.1085550  -0.5514515
   1.1389231   0.1068081   0.3879051  -0.5240062   0.3132054   0.2544210
  -0.0248605   0.1828557   0.5658577  -0.2103280  -0.8021564  -0.3288039
   0.1104319   0.0031990   0.0262918   0.8167793  -0.4723587  -0.2968942
  -0.9401827   0.7403639   0.5607791  -0.0690925  -0.0451308  -0.0715127
  -0.5672826   0.0734321  -0.9496227  -0.6200358   0.0185615  -0.4369740
  -0.0422749  -0.0946067   0.0738992  -0.0178920   0.0070152  -1.0393813
  -0.8918829   0.4079016   1.2586011  -0.0414284   0.0979685  -0.2555827
   0.5002785   1.1670984  -0.1496559  -0.4221511   0.2636023  -0.0470880
   0.1593880   0.0596654   0.0456102   0.2498186   0.7812944  -0.3254521
   0.5650675   0.0294851  -0.1520543  -0.0226492   0.0317984   0.0114963
   0.3311529  -0.7369516   0.7759268  -0.1803564   0.3268903  -0.2841072
   0.0794978   0.1644618  -0.0063555  -0.0788461   0.8000428   0.1838470
  -0.0856095   0.0613280  -0.4982744   0.0599362  -0.0623727   0.0763934
   0.1935028   0.0972761  -0.0729910  -0.1997428   0.0149759   0.1260781
  -0.0821728  -0.0417610   0.3020920  -0.0106919   0.4631559   0.3207817
   0.6088142   0.1077423   0.5701682   0.1261320  -0.0046183   0.1196945
  -0.3288448   0.2845523   0.0294974  -0.0048736   0.4775187   1.0771941
  -0.0298851   0.1147678   0.0246216  -0.3450846  -0.0728022  -0.4805704
   0.1270444   0.2383847   0.1881762   0.2108926   0.2698291   0.2037268
   1.6000776  -0.0658815   0.7548871   0.7494084   0.6869338   0.7941825
  -0.1222700  -0.3342295  -0.0867079  -0.0461419  -0.1050371   0.1240866
  -0.3084106  -0.4551366  -0.3560475  -0.1123467  -0.0311345  -0.0356704
  -0.8804871  -0.1428183  -0.4306442   0.0359097  -0.2112310   1.1189388
   0.3209869  -0.1434803   0.1350990  -0.2481553   0.0194882   0.7001151
  -0.3829390   0.0729634   0.9170790   0.1211779   0.3071618   0.0856061
  -0.3071663  -0.3094996   0.1688131  -0.3513503   0.8831269   0.2065185
   0.2395351  -0.0685547   0.3414662  -0.0009071   0.3621056   0.0708010
  -0.1667793   0.0633287   0.7876623  -0.0027812   0.0989011   0.2628532
   1.0834921  -0.8263588  -1.2249069  -0.2607767   1.2652664  -0.6359004
   0.1354871   0.1120048  -0.1468141   0.0343960   0.1122906   0.7750807
   0.0803481   0.1115913  -0.0166402  -0.3611164   0.1641382   0.4757904
  -0.1674434  -0.4935903   0.5079506   0.2082015   0.1984202   0.0950367
   0.0179856  -0.0040260   0.0967186   0.0497364  -0.0145476   0.1274125
  -0.0965947  -0.1183525  -0.5670590   0.0868613  -0.1830299   0.0844770
  -0.4644109   0.4112611   0.0945476  -0.5657856  -0.4799367   0.8707424
  -0.1807616  -0.1412499  -0.2091095  -0.0453436   1.7460822   0.5268617
  -0.6956995   0.3164505  -0.2099061   0.0314784   0.2186193   0.2562816
  -0.0644441  -1.3257031   0.4415195   1.1139556   0.9918590   0.4021972
  -0.2345036   0.1613773   0.0010706  -0.5767848  -0.0986029   0.1259611
  -0.2294471  -0.2704597  -0.4246631  -0.0182808  -0.2466774   0.0347506
  -0.4491080  -0.5961632   0.9274145   1.1417870  -0.2775712   0.1232254
   0.0095660  -0.1050150  -0.3596976   0.2302340   0.5861002   0.5769339
   0.4000940   0.5703184   0.2701772  -0.0229759   0.0503888   0.2846006
  -0.7620043   1.0898990  -0.8537132   0.7724894   1.0467397   1.8493118
  -0.1056266  -0.2296404  -0.2580490  -1.6109000  -0.9211757  -0.0127427
   0.1140571  -0.1208030   0.0198582   0.1871033   0.2651056  -0.2112264
   0.3188008   0.1091851  -0.4991714  -0.0148637   0.7222641   0.3936392
  -0.1378892  -0.1225152  -0.3324813  -0.1448567  -0.3522067  -0.1624840
  -0.4897716  -0.2189788  -0.3684843  -0.0504258  -0.0480004  -0.3139254
   0.2606512  -0.1632543  -1.2848463   0.3542748   0.3271714   0.0964832
   0.0524923   0.0517495   0.1090860   1.4953560   0.4372140  -0.2129478
  -0.2423228  -0.5162058  -0.7244801  -0.0432022   0.1166100   0.1978947
  -0.2345341   0.1277634  -0.1067041   0.4083500  -0.3389978   0.2341165
  -0.0416136   0.1637124   0.0516695   0.5774988  -0.8704316  -0.1723335
  -0.2058872  -0.0322908  -0.1844524   0.0440671   0.0323898   0.3032806
   0.0746055   0.6780223  -0.5071433  -0.5006478  -0.3819057   0.0906041
  -0.1395697   0.1435262  -0.0446938   0.3528154  -0.7173187  -0.5943480
   1.4808408  -0.0907721  -0.4897869  -0.4326689   0.0708680   0.1478771
  -0.2523144   1.1319394   0.8118738   0.6895085   0.3619168   0.7653853
  -0.3463030  -0.3045434  -0.1455613  -0.3479933  -0.1913820  -0.1366054
  -0.3386299  -0.6175726  -0.0670226   0.1273518   0.0090114  -0.0646165
   0.0171957   1.4300490   0.3885553   0.1588699   0.0381188  -0.5596704
  -0.1052921  -0.0887976   0.5550782   0.2006019  -0.1173760  -0.7309126
  -0.1739707  -1.2506097   0.4770968  -0.0213450   0.0854941   0.2992097
   0.5488454  -0.1631417   0.4169678   0.4444511  -0.2210664   0.2312566
   0.0495798  -0.0242616  -0.3114014  -1.4276273   0.6778609  -1.0723152
  -0.1832083   0.1706466   0.0941602   0.0109206  -0.1963993   0.0663027
  -0.3274811   0.3537850   0.1164350  -0.0158138   0.0161311   0.1081576
  -0.2876570   0.2211010  -0.1971520   0.2528534   0.5189230  -0.4935723
  -0.0381646   0.1309114   0.5781868  -0.2870651   0.0045164   0.0052149
  -0.8985022   0.0862567  -0.3306143  -0.9819184  -0.6289839   0.6933487
   0.2008707  -0.1889777  -0.0659528   0.6063520   0.3108560   0.5445994
   0.2947435  -0.3680697   0.3639835  -0.1504726  -0.1594029   0.0014150
   0.1114222  -0.0697987  -0.0252905  -0.6579729  -0.3339186   0.0522788
  -0.3085375  -0.0521213   0.0216031  -1.3508414  -0.7125312  -1.2945949
  -0.0578093   1.1369603  -0.6778851  -0.0471102  -0.3928117  -0.1110899
  -0.1348276   0.5852058  -0.5250236  -0.6304426   0.5522294   1.6465262
   0.0787898  -0.0846524  -0.2780315   0.7130155  -0.1048505   0.3043480
  -0.6044237   0.0451753  -0.5605291   0.4567534  -0.1448698   0.1345309
   0.2749134  -0.1879065  -0.2206796   0.4610437  -0.3940290   0.0260194
  -0.1770645  -0.0895220   0.3231883  -0.2227440  -0.1605717   0.3899542
  -0.5868165  -0.4851765   0.5330371   0.4452306  -0.1703859   0.1330051
  -2.0229657   0.2223714  -1.8141887   1.0587768   0.4271571   0.7779665
   0.0747433  -0.2496437   0.5088652  -0.1239921  -1.3579359   0.5718033
   0.8709529  -0.0827508  -0.0185093   0.0015683   0.0594894   0.1174170
   0.6314836   0.1343771   0.2380447  -0.1378832   0.3041586   0.0320868
  -0.0360383   0.0063965   0.0184088  -0.2502790  -0.9228282   1.6525403
   0.4010754  -0.0891102   0.3277873  -0.1254449  -0.1651896   0.0669975
   0.9374086   0.1426856   0.2039136  -0.1645835  -0.7574933  -0.8173282
  -0.0804155  -0.0588419  -0.2359710  -0.0517832   0.2060224  -1.1233400
  -0.2825233   0.1895537  -0.0217901   0.1125134   0.0522547  -0.1046620
  -0.1443338   0.3476044  -0.2297942  -0.2099723  -0.5854805  -0.0964943
   0.2672581  -0.0109125   0.1260793   0.4967860   0.0663403  -0.4868112
   0.5861509   0.1280166   0.2407908   0.3440620   0.2404346  -0.0411850
  -0.2119990   0.2807250  -0.2210991   0.1122508   0.2527991   0.5057567
  -0.0374830  -0.3459917   0.2699782   0.0160527  -0.4038810  -0.4965920
   0.5913648  -0.3450908   0.8056923   0.0202479  -0.0011821  -0.2163207
   0.8051393  -0.3251223   0.5326107   0.8912504  -0.4304370   0.8472518
  -0.1096445  -0.2604237  -0.1679493  -0.7653210  -0.2129499  -0.1155322
   0.0244446  -0.3105053   0.2215565  -0.0837920   0.2668402   0.0057472
  -0.2892306  -0.1660310  -0.8868059  -0.3767329   0.4190956  -0.7730849
   0.0707444   0.0188875   0.0119675  -0.0176277  -0.2188946   0.2330773
   0.5162112  -0.4357830  -0.2081336   0.1515633  -0.2175071   0.0630769
  -0.2013867  -0.4039199  -0.1565093  -0.3356398  -0.1299313  -0.3286314
  -0.2696643  -0.0993166   0.0454513  -0.1276141   0.3100939  -0.0823256
  -0.2070979  -0.3911361  -0.0116090   0.2433162   0.0575011   0.1217325
  -0.6267767  -0.0433740  -0.7121962   0.0489855   1.0512622   1.3317337
  -0.0054504   0.0626264  -0.0673795  -0.6166527  -0.1004256  -0.1741907
   0.1585294   0.2933442  -0.5763973   0.0925185   0.0628389   0.0273470
   0.2495433  -0.3576147   0.1207856  -0.1448346   0.2829612  -0.1996680
   0.0740767   0.0783907   0.0443707   0.3321182   0.1206428  -0.1146311
  -0.1536619   0.3961476   0.4476882   0.0872343   0.0737349  -0.4146432
   0.2443614   0.5329518  -0.7668573   0.1818674  -0.1174447  -0.7432729
  -0.0042370   0.3265868   0.0716955  -0.3457176  -0.2814807  -0.4748025
   0.5809661  -0.0737489   0.5683756   0.0126357  -0.0077184   0.0436634
  -0.7122594   0.3762489   0.6800039   0.0291116   0.1218529  -0.1977739
   0.1290879  -0.1835170   0.0519230   0.6926357   1.2808494  -0.3057593
   0.0259009   0.0531553   0.4642316   0.0160186  -0.0042156   0.3290039
   1.0188945  -1.1644607   0.3700436   0.9458284  -0.5592420   0.3562333
  -0.0527290   0.0453181  -0.1151684   0.0664048  -0.1674138  -0.4455339
  -0.1454185   0.0246443   0.1807310  -0.5878795   0.0347548  -0.0127668
  -0.4377929  -0.0039884  -0.1246234  -0.5241032  -0.4395818   0.2159927
  -0.1244192  -0.3180682  -0.0136066   1.0169959  -0.1067715  -0.7036282
  -0.4760437   0.6071906   0.2713150   0.0611745   0.2084858  -0.0259963
  -0.3503218   0.9266791   0.6296296  -1.2537632   0.1011884  -0.1646883
   0.2164490  -0.1902390   0.0037127  -0.1973817  -0.9504603   0.0422501
   0.5768251  -0.4691470  -0.1375809   0.0216864   0.2070595   0.1745725
  -1.1533565   0.6370162   1.3600092  -0.0983685   0.7570738   0.4035303
   0.0295936  -0.0868262  -0.0559023  -0.2035339   0.6206485  -0.6283522
   0.1832696  -0.3148830   0.0569725   0.1256092  -0.0522738   0.0830747
   0.2905665   0.7109567   0.1355782  -0.0079191  -0.5987217   0.0201535
   0.0409482   0.0590020  -0.2187565  -0.7795802   1.8333903  -0.5870975
   0.5241809  -0.3491880   0.0948105  -0.1539461   0.2553300  -0.0411551
  -0.1135982  -0.0657538  -0.1151526  -0.1457236   0.2978294  -0.0419779
  -0.0131583   0.2203193  -0.1534647   0.6586775  -1.0392777   0.2294065
   0.0151539   0.0884416  -0.4081452   0.2314049  -0.2245034  -0.0766804
  -1.7479705   1.4899703  -0.4882727   0.0632387   0.5616731   0.1364916
  -0.2004965  -0.0685880   0.2248018  -0.4601287   0.4359406  -0.8150971
  -0.4306923   0.0618852  -0.9360389  -0.1134013  -0.2643740  -0.2491011
  -0.0051152  -0.1587827  -0.1956806   0.0063613  -0.2141353  -0.8742504
   0.0263575  -0.0039667  -0.2254273  -1.0422753   0.7936908  -0.0544847
  -0.1896214   0.2290931  -0.2850080   0.1874372  -0.0171320   0.0420664
  -0.0210048  -0.1923724  -0.4200205   0.2640519  -0.0183298   1.7223136
   0.2534519   0.1153571  -0.0816314  -0.2674749  -0.3814393   0.3791419
   0.0198555   0.2924301   0.1342457   0.1305887   0.1213346   0.2239639
   0.4558688  -0.0710050  -0.4950654   0.1050584   0.1995635  -0.1686668
  -0.0723567   0.1150049  -0.1825093   0.0913741   0.8660558  -0.4689201
   0.1542160   0.1106917   0.5878351  -0.2984968  -0.1763746  -0.1502935
  -0.4341185  -0.5409920  -0.6660160   0.3185385  -0.0979926  -0.3858112
  -0.1092696   0.1236998  -0.1148990  -0.0216862  -0.2004575  -0.9081408
  -0.1337046   0.4119593   0.2821262  -0.0620924   0.0312586  -0.1703252
   0.1462705   0.6161989  -0.2133749  -0.3426193  -0.1500136  -0.1220713
  -0.0282406  -0.1629883   0.0750812   0.1386907  -1.2436726  -0.1120289
  -0.7654445  -0.1772488  -0.4865524  -0.2411757  -0.2378047  -0.0617762
   0.1694714   0.3333410  -0.4478211  -0.2606977  -0.3499983  -0.2437889
  -0.3901150  -0.4041382   0.0342262   0.5660507  -0.4328985  -0.1232372
  -0.2243980  -0.1475693   0.2818423  -0.2320154  -0.3997053  -0.3026068
   0.3664079  -0.4309677   0.2792723   0.0992662  -0.0112206  -0.8287823
   0.0101179  -0.0875990  -0.0817557  -0.0200062  -0.0904887  -0.0702617
   0.1947981  -0.0638262  -0.1557218  -0.1011864  -0.1165253  -0.1512732
  -0.2046838   0.0774106  -0.2671416  -0.3413954   0.3001125  -0.5618572
   0.1219426   0.3327870   0.0518709   0.1947305  -0.0650765  -0.0045313
   0.1583538   0.1835521   0.0375635   0.2124335   0.0990400   0.1816838
  -0.0591072  -0.4237087  -0.2016196   0.3051683  -0.2646415   0.5241067
   0.3753028   0.0732695  -0.0142409   0.2391940  -0.1265907   0.7319482
   0.5590626  -0.4406823  -0.3099017   0.5540471  -0.1183863  -0.0304891
   0.5229219   0.3670800  -0.0380618   0.2960715   0.0128184   0.3826070
   0.1643194  -0.0859175  -0.1048373   0.1185406  -0.7410955  -0.3323216
   0.1739342   0.1777871  -0.1694409   0.2203377   0.0696279  -0.1584652
   0.5731685   0.1664120   0.1294044  -0.6604342   0.4465615   0.0296834
  -0.2370444  -0.0307126   0.1018437   0.4660636   0.2034495   0.2098347
  -0.3783677  -0.5587753   0.0629853  -0.0048939  -0.0786074   0.3910474
   0.9309790   0.2312832  -0.4263498   0.9082667  -0.1394033  -0.0880831
   0.3069876  -0.0051121   0.1781241   0.4221073  -0.3499098   0.6807088
  -0.3362111   1.3495244   0.6276980   0.1680820  -0.1795238  -0.1927098
  -1.1736333  -0.3310924   1.4518328  -0.0599641  -0.6212333  -1.1492691
   0.1423659   0.1782015   0.1450603   0.4186665  -0.3151244  -0.0709159
   0.1560803  -0.0418030   0.3388322  -0.3636303   0.1287854  -0.0713457
  -0.2412118   0.2155635  -1.5077087   0.3544561  -0.4520257   0.1948706
  -0.0002105   0.0875130   0.1580487  -0.0862877  -0.0394796   0.4546987
  -0.1098456   0.1469024   0.2286420  -0.1268577   0.0631003  -0.1695785
  -0.3345190  -0.5416977   0.6057158   1.0670295   0.3611170  -0.0930009
  -0.2490181   0.1558996  -0.1244356   0.0842615   0.3055540  -0.3915156
  -0.7805400  -0.2568298   0.1357876   0.2465026   0.0030846  -0.3044694
   0.5686272  -0.0736501  -0.7160179   0.0663171   0.2456974  -0.5408184
  -0.3890382   0.0558204   0.2724021   0.0333257  -0.2942504  -0.0711091
  -1.3819807  -0.9252436   0.2006281  -0.4850455   0.0596622  -0.0987621
  -1.1735421   1.2299331   0.0477455   0.2577193   0.1069579  -0.2462463
   0.1261952  -0.1260906  -0.1346053   1.2330676  -0.0192760  -0.9153080
   0.4269875  -0.2116149  -0.5949110  -0.1469975  -0.0071785  -0.2309932
   0.7197140   0.4433753  -0.2503862  -0.1971029  -0.3158218  -1.1818597
   0.0072062  -0.2986308  -0.2569039   0.5498588  -0.9587428  -2.0520563
   0.0244872   0.3335968   0.5517503   0.1424611   0.2712282   0.0727752
   0.5280709   0.4802694  -0.0469541  -1.8645144  -0.2138051   0.0985718
   0.1041817  -0.0730370   0.3334252  -0.6401440   0.1283570   0.1808323
   0.4852634   0.1163114  -0.4337375  -0.4026468   0.0490719  -0.1946270
  -0.5394270  -0.0089492  -0.6443231  -0.0027433  -0.3170053  -0.1672827
   0.0907300   0.0235675  -0.2251124  -0.0989266  -0.6002616  -0.0385781
   0.1248234   0.3881516   0.2519382   0.3844198   0.0562623  -0.2596216
   0.9306939   0.4450431  -0.3457123   0.1548433  -0.6283523  -0.6571708
  -0.1870682   0.1286058   0.0892555   0.8098541  -0.4353890  -0.2288253
   0.5512916   0.7932154   0.8608771  -0.2038732  -0.2971009   0.1418364
  -0.0153772  -2.1162201   0.4291482  -1.4124446   0.3683390  -0.3542975
  -0.1593769   0.0599920   0.0222838   0.3901780   0.2351470   0.5043498
  -0.4740072   0.2847854  -0.1975161  -0.1897273   0.3371169   0.3269576
   0.0256778  -0.6191850   1.0650963   0.3714997   0.0514305   0.0929872
  -0.2310066   0.0180089   0.3963203  -0.5337466  -0.2553074   0.0206013
  -0.1414386  -0.4891036   0.4647692  -0.0113703  -0.3890241  -0.3216120
   0.8214565  -0.8116978   0.2886530  -0.8764990  -0.1226240   0.3886559
   0.1950835   0.0125055  -0.1502420   0.0712215  -0.5684261   0.0847627
   0.7607529   0.1847532  -0.0705282  -0.1768243  -0.0175888  -0.1221512
  -0.4190272  -0.4454200  -0.1518187  -0.2213570  -0.1401708   0.3721622
   0.0542135  -0.2998161  -0.2277368   0.3334510  -0.1352297  -1.6023521
   0.0070435   1.2182691  -1.2411338  -0.0394836   0.0825256  -0.0414428
  -0.1151832  -0.1178377  -0.0776463   0.4807815   0.8586396  -0.8166220
   0.1000469  -0.0233114   0.1037471   0.6319914  -0.8327987  -0.1310656
   0.1868225   0.1328019   0.0812898   0.3576240  -0.0042182   0.2953846
   0.5710370  -0.3533626  -0.0361076   0.2103590  -1.0249399  -0.3788608
  -0.2072372   0.2222166   0.0035855   1.1209800   0.1162136  -0.2149273
   0.6344700   0.1297636  -0.1339879  -0.3007995  -0.0119387  -0.0109285
  -0.1030510   0.4810270   0.1046388  -0.6300001  -0.0844832  -0.5098600
  -0.1822915  -0.0785018   0.1296588  -0.4848494  -0.4074010   0.4359748
   1.3720146   0.2486961  -0.9646553  -0.0279280   0.0799111  -0.0763251
  -0.2819250  -0.2484357  -0.3761992   0.3972431   0.3284471  -0.3466293
  -0.0007187  -0.1604083   0.2680204   0.1180631   0.0409159   0.9342280
  -0.6506273  -0.1645923   0.4262755   0.0165133  -0.1164406  -0.3511485
  -0.5883647   0.5803348  -0.8101649  -0.3112561  -0.1052480  -0.2706347
   0.1146948   0.1040874   0.1671242   0.4318938   0.1648132  -0.9497914
  -1.0534618   0.3351213  -0.1850535  -0.1124919  -0.2413243  -0.1256235
  -0.5603308   0.3631704   0.1198059  -1.2127780  -0.2370366   0.4796200
  -0.1044224  -0.3880204  -0.2016352   0.6974231   0.1320213  -0.3777849
  -0.6455181  -0.1767124   0.5109675   0.2095701   0.1238346  -0.1084301
   0.0878692   0.0263445   0.3872021  -0.0510286  -0.1803393  -0.2901189
  -0.0569876  -0.2119849   0.1913136  -0.9108970   0.3975567  -0.1938423
  -0.5573049  -0.4496484   1.1218296   0.0999730  -0.1895367   0.3608356
   0.6679376   0.1278267  -0.3243831  -0.1883643  -0.1953685   0.7914524
  -0.0283946  -0.1782284   0.0391098   0.1047814   0.1577279  -0.2345508
   0.2480931   0.4757739   0.4076981  -0.0481094  -0.1619021  -0.1592796
  -0.1002159  -0.1834304  -0.3319842   0.2583928   0.0671012   0.6777375
   0.1664148   0.1645478   0.0829628   0.4045021  -0.0051056   0.4760245
   0.2047473  -1.0910216  -0.5350083   0.1839172  -0.1511328   0.0858581
  -0.3273558   1.4561419  -0.7831107   0.7697655  -0.7391567   0.5214164
   0.1778443  -0.0056694   0.0401272   0.5953494   0.7451945   0.1600353
   1.0863360   0.1817665  -0.0872092   0.0802967  -0.1888237   0.0666528
  -0.3681149  -0.6176125  -0.5194650   1.1525560  -1.4663920  -0.9206028
   0.1011736  -0.0486856  -0.0517240  -0.9188378   0.0700814  -0.9367694
  -0.6718638  -0.0408931   0.4480192   0.1028901   0.0879983   0.3249890
  -0.3696864  -0.0621580   0.3029213  -0.1143344  -0.0244968   0.4694150
  -0.0035518   0.3475544   0.0700465  -0.1535724   0.5713543   0.3769294
   0.4094722   0.3563321   0.4004719   0.3412450  -0.2137367  -0.3951994
   0.8569091  -0.3981193   0.4216412   0.2637247  -1.1837035  -0.3143883
   0.1677194   0.3009789   0.0046979  -0.3124316   0.5108412   0.0250288
   0.9070129   0.0779095   0.3894675   0.1512740  -0.0515336  -0.1116216
  -0.4832127  -0.0902980   0.5701107  -0.4576889  -0.4317329   0.5059960
   0.0609015   0.0133944  -0.0558961   1.1567567  -1.0456487   0.1219770
   0.1474405   1.1237408  -0.0835019  -0.2150966  -0.0578008   0.0674088
   0.2352658   0.1396056   0.7207918  -0.9349829  -0.6921577  -0.6796081
  -0.0626939  -0.0372975   0.4494083   0.3676318  -0.5451702   0.2721525
   0.0325464   0.6838074   0.3849480  -0.1544683   0.0581188   0.2101029
  -0.1988940   1.1557546   0.8824776   0.8819224  -0.5051363  -0.0907161
  -0.1035614  -0.1657540  -0.2044571   0.3636690   0.1629303  -0.1379110
   0.2497316  -0.2975110  -0.5280235   0.0563614   0.0222501   0.2264885
   0.6670447   0.8858930   0.2281918   0.1533918  -0.0139959  -1.0456424
   0.2474057   0.1037728   0.0237340   0.3784503  -0.1355905  -0.2362401
   0.5539114  -0.1393245  -0.3074811   0.0774269   0.1086389   0.0662920
  -0.1645475   1.0205003   0.0637025   0.0720018  -0.3825289   0.8844379
   0.1088509  -0.1781679   0.0193068   0.3645033   0.2680234   1.4698416
  -0.2845602   0.9492003  -0.6480838   0.0198708   0.2607026  -0.3066164
   1.2154998   0.4813347   0.7790036   1.3392809  -0.2129607   0.5046432
  -0.1407227  -0.2113266  -0.1570511  -0.0608257  -0.4126090  -0.5450602
   1.2971798  -0.3385309  -0.0289257  -0.3037500  -0.0024487  -0.3166909
  -0.1410203  -0.9973621  -0.1487630  -0.2743711   0.7277305   0.5242186
   0.0880614   0.0527081   0.2666872  -0.3728247  -0.5744761  -0.2016398
   0.0881222   0.0660976   0.2904299  -0.1518723  -0.1187528   0.0863865
   0.2872063   0.1639561   0.0546375   0.6505999  -0.3468080   0.7133487
  -0.1240760   0.1954324   0.0962124  -0.0418889  -0.7677141  -0.1510192
  -0.2547459   0.2617014   0.4187703   0.1132156   0.0918970  -0.3552435
   1.4029753  -0.0098318  -0.1868087  -0.1915412  -0.0215543  -0.0174476
   0.1882557  -0.0061834  -0.1493706   0.8595097  -0.9126522  -0.2769307
   0.3362827   0.4627589   1.3591634  -0.1781726   0.2571366   0.2619211
  -0.0339710   0.2004870   1.6746439   0.0409319  -0.8998387  -0.8552054
   0.0144223  -0.1826109   0.1574090   0.9090177  -0.4314364   1.1506361
  -0.3177569   0.8437202   0.3073275  -0.2790574  -0.0664571  -0.2340592
  -0.3714374  -0.7394266   0.5331822   0.3828961   0.1949463   1.1694265
   0.0978171  -0.0005388  -0.0513056  -0.2993629   0.7231876  -1.0269831
  -0.9635837   0.5726841   1.2977711  -0.1811860   0.2965359  -0.1490547
  -0.4628077   1.0761124  -0.3390588   0.0310306   0.1288389   0.4785969
   0.1097071  -0.1175640   0.1216322   0.1909785   0.3103068   0.3301047
  -0.6115541   0.0497349   0.5835461   0.1747296   0.0932661   0.0307357
   0.1082452  -0.6101449  -0.5478909  -0.0821191  -0.1775168   0.6232646
  -0.1447655  -0.1087046  -0.3835885   0.5361499  -0.3644275   0.6446476
  -1.6191989  -0.0496379   0.5754736  -0.0555176   0.1491563   0.4422409
   0.1490132  -0.6568334   1.1348037  -0.8698507   0.6822187   0.7172076
   0.4345679  -0.0434465  -0.0381011  -1.0171554   0.3440316  -0.8532801
   0.3005795  -2.0584032  -0.1244330   0.2537037  -0.2004379  -0.0693445
  -0.0521098   0.3314696  -0.2297777  -0.2653514  -0.0921456  -0.1144533
  -0.1884471  -0.0000988   0.0952170   0.0410171  -0.2043380   0.3973781
  -0.0225325   0.0312321   0.2803148  -0.0628883   0.1108831   0.2359767
  -0.0257389   0.3104115   0.2976195  -0.7392666   1.9636795   0.7531213
  -0.0352033   0.0203248  -0.2065548  -0.8793735   0.0086531  -0.2653119
   0.2949854  -0.7604962   0.4431123   0.0310087  -0.1402515   0.1879678
  -0.5699143   1.0524217  -0.8348523  -0.5612710   0.5530782  -0.2067907
   0.1505116  -0.1011693  -0.1893602   0.6815923  -0.0908661  -0.6177343
  -0.3186311  -0.0296908   0.5844823   0.0287297  -0.0766294   0.1973756
  -0.7579991   0.0039452  -0.5863767   0.5276543   0.7852881  -0.0440710
  -0.4185729   0.0493723   0.0943962  -0.3791470  -0.0982115   0.1077129
  -0.2465389   0.0932283  -0.0656748   0.0820437   0.0212013   0.3139479
   0.8897097  -0.2722769   0.2292983   0.1918500   0.0124483   0.3292422
   0.0216560   0.1901605  -0.1033871  -0.4844738  -0.2581950  -0.1208768
   0.0155673  -0.3312224  -0.3009799   0.1795582  -0.2325834  -0.1345623
   1.2741952  -0.3847979   0.0565672  -0.2896669   0.5552756  -0.1910234
   0.1716852   0.0666827   0.1182301   0.4320419  -0.1578028  -0.1041752
  -0.1679656   0.2557965  -0.2354075   0.4277950  -0.1525362  -0.0582492
  -0.0810064  -0.3594586   1.3308808  -0.2566943   1.0508344   0.5860468
   0.0365506  -0.0858137  -0.0037798  -1.2330301   1.5694737   0.2134126
  -0.2115129   0.0753662   0.0521582  -0.2242029   0.0072637   0.2234599
   0.9964716   1.2920766  -0.3418308   0.5061124   0.5673874  -0.4184471
   0.1554281   0.0470421   0.3735723   0.5802841  -0.3402888   0.5713291
  -0.1655910  -0.0314224   0.8442026   0.6401057   0.0991074  -0.3034268
  -0.4465951  -0.1499016  -0.7681868  -0.8841231   0.0996516  -0.2836905
   0.1782531  -0.1022910   0.0089388   0.1187029  -0.3202187   0.3182143
   0.6457380   0.0954708   0.0320333   0.3135220   0.4272770   0.1929144
  -0.5675062   0.5653156   0.1722154   0.6825699   0.0717113  -0.1830367
  -0.0582522   0.0965054   0.0950082   0.7029209  -0.5051443  -0.5858785
  -1.1249008   0.9184525   0.9226683  -0.1297574   0.0938871  -0.0609422
   0.0485864   0.0439146  -0.1281782   0.4733589  -0.0189312  -0.4315670
  -0.3946838   0.4622338   0.2383277  -0.6318659   0.3121352  -0.1273773
  -0.3156825   0.3908047   0.1929708  -0.3791743  -0.0071142  -0.2135394
   0.0788505   0.1898422  -0.0297703  -0.9771818  -0.5305150  -0.5355257
   0.2227242  -0.0004334   0.2618650   0.1510496  -0.2877397   1.0417205
  -0.3404724  -0.3258332   0.1252849   0.0033667  -0.2408146   0.0813431
   1.1001527   0.8381173   0.6262471  -0.0879428  -0.3472573   0.0258025
   0.1674564   0.1576391   0.0337538   1.2313461   1.0219608   0.8920336
   0.9458474  -1.1111926  -0.3303350  -0.2733166  -0.0197834   0.2228280
   0.2092246  -0.4630300   0.5792026  -0.3877723  -0.1761350  -0.8483710
  -0.1455223   0.0510314   0.3803124  -0.3208900  -0.3231152   0.7371887
   0.3991423   0.3605184   0.2679852  -0.2076778  -0.2322121   0.0206895
  -0.5482175  -0.2045575   0.1031629  -0.2605166  -0.3144041  -0.0731937
  -0.0782512  -0.0644720  -0.0475115   0.2730945  -0.1281859   0.4755752
   0.2616455  -0.1227495   0.2821651   0.0295633   0.1199490  -0.2268485
   0.3442444  -0.2818446  -0.6160417   0.5255183   0.2124279  -0.1229005
   0.0589876   0.0934890   0.1968490   0.1266356  -0.5419248  -0.5252715
  -0.0101029   0.2196162   0.4011159   0.3067858   0.0259452   0.5277993
   0.1671862   0.1160280   0.5054106   0.7152889  -0.2249051   0.5382480
   0.1694514   0.0337526  -0.1759791   0.3083193   0.4773898   0.6649808
   0.6227422  -0.0864678  -0.0148836   0.3433578  -0.0676911  -0.0972574
   0.3426045  -0.4782833  -0.7702592  -0.2127475   0.8519520   0.9227758
  -0.1130187   0.0008351  -0.1477896  -0.0555571  -0.4398485  -0.4762310
   0.2623700   0.5931494  -0.4697450  -0.3414761  -0.1020416  -0.1354150
  -0.1212433  -0.2643403   0.2320571  -0.9318656   0.4481438  -0.2918676
  -0.1002944  -0.0225844  -0.3370814   0.5337141  -0.7020609   0.0983133
  -0.1303528   1.1658348   0.4767638   0.0435121   0.3852116   0.0219666
  -0.2584060   0.0835607  -0.8000260   0.7782911   0.0032093  -0.2011630
  -0.3425439   0.3796585   0.2006404   0.4223643   0.5608622   0.3540449
  -0.9683440  -0.0375333   0.7685527   0.1608648   0.0119605   0.2350320
   0.7653311   0.1062662   0.9679172  -0.2292635  -0.1352366  -0.1535719
   0.1986315  -0.1294526  -0.0176987  -0.3827618  -0.4941673   0.3575933
  -0.1143561   0.7523567   0.3185690  -0.3752072   0.0357911  -0.0274955
  -0.8073327  -0.7889573   0.3530703  -0.2450729  -0.6502794   0.9437794
   0.0923938  -0.2674625   0.2553318   0.0168313  -0.1575475   0.2468221
  -0.0304839   0.2309807   0.6245431  -0.3809149  -0.0826259  -0.2988818
  -0.6656922  -0.0523225  -0.9087926   0.0668893  -0.2884592  -0.3872930
  -0.0120351   0.1232922   0.0104783   0.5174542  -0.6778073   0.2458195
   0.4340121   1.0446793   0.3486068   0.0342544   0.2880680  -0.2606534
   0.3680768   0.2591968   0.1335913  -0.0218049  -0.3798618  -0.7329398
  -0.1806081  -0.0904129   0.1456037  -0.6460706  -0.1831258   0.1566020
   0.1782416  -0.0287746   0.1049201   0.1245040  -0.0684016   0.1369168
   0.0523385  -0.0792054   0.3191419   0.2291413  -0.8479461   0.5024444
  -0.0921971   0.0182629  -0.1502172  -0.2077988   0.3273408  -0.2197873
   0.3946410  -0.0840469  -0.2496892  -0.3448171  -0.0197433  -0.1040600
   0.4301746   0.2327284  -0.9172514  -0.7316185  -0.1793920   0.5944579
  -0.4637265  -0.0618575  -0.0719606  -0.2592260   0.3732066  -0.2226274
   0.0853603  -0.7087903   0.3878801   0.2404817   0.1750780  -0.0913160
   0.1481530  -0.3429614   0.1380612   0.2523075   0.3248188  -0.2291537
   0.2178123   0.0011863   0.1290914   0.6643294   0.5840029   0.1871319
   0.3956096   0.2106920   0.2741840   0.3233197  -0.1242069   0.0164697
  -0.1356841  -0.5387041  -0.8254690   1.2019258   0.0223750  -0.2790770
   0.1662138   0.0849317   0.2052316   0.1364136   0.6725948  -0.5158321
   0.5432355  -0.4325965  -0.5501661   0.2115898   0.0634396  -0.0561722
   0.1553108  -0.1374998   0.1797735   0.1403631   0.1796971  -0.2785799
  -0.0421331   0.1714206   0.0926546  -0.1855480   0.1620061   0.1050224
  -0.7035790   0.1186180  -0.1523399   0.0515561  -0.1364364  -0.4619519
  -0.0912235  -0.1457087  -0.4848222  -0.1174336  -0.1139507  -0.5778434
  -0.2986813   0.1116024   0.1903638   0.2369844   0.2153809   0.2541784
  -1.0323248   0.1342244  -0.5830902  -0.0788356   0.3078331  -0.1142007
   0.3025265   0.5875672   0.0013609  -0.1029504   0.0915558   0.0638520
  -0.0587913  -0.0342982   0.0031727  -0.4320565  -0.0963903   0.1144651
  -0.0041976  -0.6772173   0.3243342  -0.1975312  -0.0545423   0.0182461
   0.0383986   0.1426755  -0.4766560   1.2482581  -0.1808811   0.7220841
  -0.1472831   0.0539407   0.1188791  -0.0886820   0.0389940   0.8975481
   0.7016501   0.0159972   0.5385872  -0.0133772  -0.2269972   0.0914213
  -0.5607425   0.2841297  -0.8959076  -0.6877664   0.0679387   0.4745100
  -0.2913624   0.1266143  -0.1324669  -0.2688719   0.7523986   0.6887142
  -0.3323406  -0.0975317  -0.4797766  -0.0027889   0.2993319   0.0480228
  -0.5760414   0.2100788   0.1012247   0.8169878   0.2847660   0.0592569
   0.2892834  -0.2516764   0.1051356  -0.7577806   1.5210217   1.4723735
   0.6605592  -0.3427967  -0.0098393  -0.0132314  -0.0422769  -0.0296536
   0.3753226   0.7270241   0.1140461  -1.0686061   0.2645231   0.3667313
   0.2162320   0.1934176  -0.1765572   1.4508022  -0.4927016   0.0577989
   0.3320600  -0.9481433  -0.9882062  -0.0308341  -0.0303481  -0.2691703
  -0.9191480  -0.2895242  -0.9927906   0.5028120   0.0366161   0.0097363
   0.1253035   0.0255998   0.1464993   0.5562759   0.0169452   0.1043455
   0.1980308  -0.1382481   0.3375662  -0.1842369  -0.0984881  -0.1740513
   0.3624000   0.4759998  -0.5606965  -0.8363611  -1.0949476  -0.3395678
  -0.1561205  -0.2953879  -0.2093411  -0.0308729  -1.5289851  -0.2314031
  -0.2930505  -1.1830452  -0.9356261   0.1313334   0.2313901   0.2103545
   0.1504759   0.6131537   0.4036730   0.0980389   0.7061090   0.1658660
   0.2696591  -0.0620558  -0.3687685  -0.1895079  -0.2806025   0.1334964
  -0.6389097  -0.4865577   0.6045734   0.3429696  -0.0886530  -0.2740351
   0.7682902  -0.6821391  -0.2618318  -0.4455394   0.1858569   0.4398409
   0.2991385  -0.2799813   0.1968845   0.5694849  -0.0144849   0.8285475
   0.8029670  -0.7441755   0.1429717  -0.0561165  -0.0258381   0.4580098
  -0.3558989   0.4717821  -0.1407978  -0.6774509   0.9339492   0.2527027
  -0.1916610   0.0776184  -0.0515960   1.5011508  -0.3951817   0.2517795
   0.9656202   0.0217261   0.2524248  -0.3088960  -0.0728470   0.0224252
  -1.1409122   0.5517048  -0.5295902  -0.1758353  -0.2612106   0.9844621
  -0.0313606   0.0782187   0.2796875   0.1048399   1.1699157   0.2458914
   0.1876497  -0.1321670  -0.0082613   0.3386796   0.1220607   0.1538880
   0.3699453  -0.4296467   0.5403255   0.3905086  -0.0674404  -0.3598275
   0.1287283  -0.0241802   0.2046854   0.3687616  -1.4608473   0.1099307
   0.4391915   0.6191041  -1.0901718  -0.1170712  -0.0497575  -0.0580637
  -0.7045731  -0.1778610  -1.1058949  -0.2399562   0.5741107  -0.1730135
  -0.0323958  -0.1809466  -0.0042732  -0.0141405   0.3700348  -0.9748634
  -0.3200501   0.2153482   1.0644357   0.1262619  -0.1631767   0.0945252
   0.2516417   0.0058474  -0.0993784   0.6433078   0.8986987  -0.7014324
   0.0006400  -0.2883172  -0.1161971   0.9111700   0.2474121  -0.2545265
   1.4850914   1.0517299  -0.1499081   0.1974003   0.0558437  -0.0709462
  -0.0828963  -0.4031974  -0.0957778   0.1429921   0.2988099   0.4947111
   0.1523945   0.1478458  -0.3821898   0.5020702  -0.2147107   0.6213841
  -0.3276064   0.4886262  -1.4596064  -0.0127424   0.0013681   0.2808114
  -0.7238109   0.0645095  -0.6034615   0.1492910  -0.3156455   1.1936664
  -0.0652354   0.0559545   0.0926744  -0.1968387  -0.8068752   0.5729012
  -0.5030678   0.3036317   0.1237842   0.0001974  -0.0992641   0.3018019
   0.0783739  -0.0546525   0.2485194   0.3806698   0.1991316   0.7042540
  -0.0680904   0.1944896   0.0617698   1.0483853   0.6075179   0.4118665
  -0.8583824  -0.2600217   0.2766793  -0.3725414  -0.0142174  -0.1687983
   0.2083223  -0.3035485   0.4347431   0.7425095   1.0201002   0.0093254
  -0.0957200  -0.1814533   0.2494343   0.3286388  -1.0349404   0.9075709
  -0.0388060  -0.0344612  -0.2213033   0.3354049   0.2265117  -0.1131203
  -0.9563670   0.2170414  -0.5200126   1.3077499   0.3343477  -0.3998064
   0.0508299  -0.0943805  -0.1399654  -0.3288885  -0.1845581  -0.2380055
   0.8548570   0.0146047  -0.3008811  -0.0798077   0.0700109  -0.0178303
  -0.5698349   0.1298040   0.3262723  -0.6389249  -0.0096849   0.5722695
   0.1878085   0.1764795   0.0028447  -0.9812662   0.3987941  -1.5180590
   0.4448873  -0.9781940   0.0304295   0.1536836  -0.0373985   0.2373740
   1.0608310  -0.0081102   0.1411598   0.0610475  -0.5405494  -0.5197493
  -0.1081609   0.4369702   0.0173624  -0.7331693  -0.6538744  -0.3128392
   0.6037472  -0.6216718  -1.0651298   0.0164267   0.0538354  -0.3700627
   0.6091092  -0.3246339  -1.1166178  -0.1655110   0.8221091   0.0562991
   0.2652081  -0.0632436  -0.4046296   0.4539551  -0.3897915   0.0475368
   0.7136174   0.1140345  -0.0724155  -0.0429005  -0.3045949  -0.1713608
  -0.6064523  -0.1691114  -0.8327300   0.2904740   0.2302031   0.1811255
   0.2230914   0.2163567  -0.0979475   0.9083148   0.3150217  -0.0362490
  -1.6587394  -0.2003541  -0.2988482   0.2076566  -0.1090227   0.1391242
  -0.2067975   0.4983598  -0.4433281  -0.1157338   0.0119207   0.1731920
   0.0204793  -0.0370212  -0.2713118   0.4921506   0.1035106  -0.4586829
   0.0260616  -0.3029643   0.2037430   0.1841841  -0.1918909  -0.4535984
  -0.3180191   0.0116379  -0.5867053   0.3717631  -0.7362782  -0.1229550
  -0.1514698  -0.3813820   0.1367527   0.4711581  -0.3164443  -0.6507253
   0.0792034  -1.0828013   0.0891063  -0.0591102  -0.1939026   0.0250555
   0.2818458  -0.3788394  -0.3175470   0.1208946  -0.3858559  -0.1944644
   0.1162182   0.0223291   0.1744724   0.3146487  -0.2065750  -0.4307298
   0.0154284  -0.7191097   0.5381215  -0.1567208   0.0428550  -0.0124507
  -0.0988427  -0.1769116  -0.0883924  -0.3103407   0.2579889  -0.3228514
  -0.0127810   0.0353211   0.3049587  -0.2918968  -0.4258496  -0.2179753
   0.2467258  -0.0984199   0.3073298  -0.1308041  -0.1916564  -0.0526418
  -0.6450323  -0.8643467  -1.1475755   0.8249225  -0.3146233   1.1262455
  -0.1442208   0.2384186   0.1686060  -0.2052511   0.8232545  -0.1225607
  -0.6912954  -0.4072044   0.9254605  -0.2684608   0.3603888  -0.1255983
  -0.1321390   0.2664413   0.3067269   0.0756864   0.4985959  -0.8229970
   0.0459460  -0.0838948   0.1384938   0.1517681   0.7826980  -0.5916789
  -0.8096926   0.2037270  -0.0204185   0.1757902   0.0934103  -0.1217795
   0.1543677  -0.2023164   0.0942659   0.1756279   0.1205112   0.1563365
  -0.2371211   0.0279717  -0.1913294  -0.5538472  -0.6048204   0.0646122
   0.3259773   0.2491561  -0.6080224  -0.1345393  -0.0438574   0.1801463
  -0.8669816  -0.5556626   0.5189842  -0.3036923   0.1935767   0.1143653
  -0.1225454   0.2251697   0.1041470   0.0550405  -0.8603642  -1.5970650
  -0.5402557   0.0028218   0.2293742   0.0504740   0.2132454   0.1992005
   0.1404287  -0.3729041   0.9641493  -1.3741953  -0.3478632   1.6751559
   0.3754140   0.2168012   0.0348556   0.3919394   0.1100439   0.1422147
   0.2974463   0.0694614  -0.0892387   0.1287155  -0.1362789  -0.0191224
   0.5982612  -0.0521002  -0.0476250   0.2242345  -0.4478315  -0.4939138
  -0.1714351  -0.0424277   0.0809728  -0.1613315  -0.0260697   0.1465368
  -0.4318990  -0.0770596   0.0197862   0.0810911   0.1809658  -0.1047516
   0.4003541   0.5849158   0.0803210  -0.5568392   0.5433480  -0.2842314
  -0.1187543   0.0980958   0.2288856   0.2023153   0.4629861   1.7367593
  -1.0024796  -0.6435969   0.2299710   0.0018955   0.1114781  -0.0238851
  -0.1662210  -0.0469273   0.9437113  -0.0397949   0.1017978   0.2385897
   0.2402418  -0.1227559  -0.2453429   0.2414801   0.9224755  -0.7319141
   1.0450892   0.6407265  -0.7377602   0.2344191  -0.2580253  -0.0693028
   0.9043032   0.5113978  -0.1180508  -0.3246145  -1.2548361  -0.1505131
  -0.0899652   0.2548493  -0.3140485   0.3916930  -0.8998139  -0.7609150
   0.5917538   0.1122877  -0.3302771  -0.0506038  -0.0337693   0.2838107
  -0.6360962   0.0742515   0.4976114   0.2690260   0.3426813   0.8706948
  -0.1963206   0.0441652   0.0740646  -0.3305134   0.0063639   0.0517885
   0.9926289  -0.9362698  -0.4859429   0.0866537   0.0760675   0.2792259
   0.3211191  -0.2945531   0.5805982  -0.0010172   0.2789444  -0.1321453
   0.0407239   0.4022510   0.0467163   0.2632248   1.0304706   0.2533544
   0.6139090   0.2751159  -0.0158312   0.2995871  -0.0343171  -0.1694663
   0.2738831  -0.5797956  -0.1102845  -0.6361956   0.0980111  -0.7521908
  -0.3476524  -0.0491622  -0.1705367  -0.1741786  -0.0852565  -0.0935706
  -0.0680930   0.7027776  -0.1111825  -0.1702029  -0.1112931  -0.0853605
  -1.2920049   0.0964171   1.1746473   0.0415923  -1.1894869  -0.1718570
  -0.1070565   0.0544213   0.0600017  -0.1426906   0.0509887   0.1426519
  -0.4511267   0.2379799  -0.3198010   0.1053201   0.0146369   0.1242225
   0.5492364  -1.0642896   0.5042156  -0.0205905   1.3085927   0.3544954
   0.2867715  -0.0285659   0.1520505  -0.4497325  -0.2106003  -0.2359712
   0.9461391  -0.1950116   0.5699325  -0.2369008   0.0381004   0.0765430
  -0.2337715  -0.1297528   0.8147105   0.5727645  -0.1160894   0.1425504
   0.2232850   0.1202911   0.0241019   0.9835722  -0.7108843   0.2937833
  -0.4025463  -0.3667832  -0.9575613   0.0262228  -0.1367447  -0.2916107
   0.0812710  -0.5320162   1.3314443   0.1678408   0.0899994  -0.2005940
   0.0637786  -0.0689645  -0.2857957  -0.9176127  -0.6511327  -0.9138029
   0.4013745   0.0433386  -0.2822372  -0.2163509   0.0195703  -0.0265689
   0.1648926  -0.2739047  -0.3551664  -0.4317768   0.0814756  -0.1780694
  -0.4629189   0.4171738  -0.1354742  -1.2663028  -0.1055647   0.0136276
   0.6845334   0.8728952  -0.2144056   0.0957575   0.0424404  -0.2467652
  -0.1035849  -0.7953272   0.5503104   0.2343719   0.3968437  -0.9411237
   0.1018437  -0.1208170  -0.1878755   0.2941124  -0.5532216  -0.0184942
   0.0618269   0.2068954   0.0352541   0.2325005   0.2035848   0.1529622
  -0.0692540   0.1401228   0.1907490   0.2183989   0.3861158  -0.1464892
  -0.3402552   0.0596638   0.1940512   0.0844299   0.0381111  -0.2936455
  -0.0577882   0.2138339   0.1709463  -0.0454102   0.2933922   0.0771690
   0.9759887   0.3706482  -0.1348565  -0.3570673   0.3613537  -0.5058315
  -0.0411929   0.0391164   0.1792974   0.4815382   0.5445564  -0.2998695
   0.1701103   0.9656922   0.0672893  -0.1170381  -0.0392817  -0.2484470
  -0.3675622  -0.0535093   0.4759444  -0.4129898  -0.0268638  -0.1887456
   0.0321639   0.0420944  -0.2380609   0.5630528  -0.6283568  -0.1540414
   0.0361585   0.3215014   0.3478357   0.1698691  -0.2021373  -0.0558228
  -0.3679066  -0.7151096  -0.1623374   0.6505321  -1.0744988   0.0491231
  -0.2760030  -0.0978350   0.1158465   0.4094384  -1.7171399  -2.4317808
   0.0071459  -0.1890773  -0.3934045  -0.0243524  -0.2648797  -0.2101236
   0.1079771  -0.1102355  -0.1989571  -0.7208240  -0.3412937   0.5321349
  -0.0842963  -0.0856337  -0.1040066   0.2175090  -0.0406888   0.1661023
  -0.2756131   0.1054926  -0.1197405  -0.0218878   0.0770024   0.2720282
  -0.9670368   1.2956189   0.6648922  -0.1301591  -0.5190388   1.0136693
  -0.0702673  -0.1408297   0.1202490  -1.5945514   0.6337319  -0.3055129
   0.3591584  -0.1782300   0.0257114  -0.0961614  -0.2214277   0.0815830
  -0.8206411  -0.1594458   0.0621072  -0.1880724  -0.7463576   0.5813438
   0.1597690   0.1235509  -0.1567504   0.6830477  -1.4208156  -0.4337540
   0.7880854   0.4313293   0.7557866   0.0325903  -0.1932491   0.1579192
   0.0558343  -0.2361235  -0.7755829  -0.7973390   0.2677645   0.3342441
  -0.1941912   0.0315941   0.2280700  -0.5799907  -0.3962372   0.2553764
  -0.6807945   0.2818589   1.0564138   0.1544224   0.1648515  -0.0707842
  -0.6850933   0.0348518  -0.2269843  -0.4409243  -0.3145886  -0.4067798
   0.0694645   0.1491797  -0.2584223   0.1749019   0.1091521  -0.1236649
  -0.2340119   0.4627553  -0.3739448  -0.0004105   0.1748582   0.1150702
  -0.3748533  -0.1402754   0.5893617  -0.3253665  -0.0041795  -1.2259146
  -0.1032977  -0.1143954  -0.2568293   0.9263766   0.5354851  -0.5916257
   0.7404391   0.0324454   0.2806040  -0.1008800  -0.3529258   0.1984156
   0.7729378   0.2387415  -0.8899058   0.8166743  -0.4372011   1.2858128
  -0.0064140   0.0015036  -0.2249687  -0.5014978  -0.1831477  -1.1111907
   1.1108574  -0.3515609  -0.6035801  -0.1442368   0.0431175   0.1459699
   0.1059097   1.8298542   0.2144552  -0.2674900   0.3679194   0.4682992
  -0.3007134   0.1474470   0.0212916   0.5682957  -0.3572323   0.8408922
  -0.5821504   0.2695952  -0.1392453   0.2585662  -0.1286499   0.2338809
   0.1060646  -0.9774033  -0.0436202   0.2880723   0.6671272   0.4547329
  -0.0252663  -0.0293249  -0.1036796  -0.6553396  -0.5508603   0.3482921
  -0.3377211   0.8404022  -0.0478163   0.0940183  -0.0550926   0.1568422
   0.2040225  -0.0989019   0.2128193  -0.1059459  -0.2425689   0.4623057
  -0.3050398   0.0040456  -0.1975809   0.2378789   1.6852506  -0.0857481
  -0.4259635  -0.0216386  -2.2694479   0.0035194   0.0561794  -0.2632769
  -0.3894489   0.4803108   0.5933973   0.6259050  -0.7351269   0.0873490
  -0.1472343  -0.0620676  -0.3925369  -0.3581137  -0.1307423  -0.5983521
  -0.5086240  -0.1603639  -0.7196905  -0.5176391  -0.4959575   0.2992892
  -0.2751479  -0.6845415   0.2472493  -0.1782106  -1.0775446   0.2277752
  -0.1738266  -0.0858710  -0.2049591  -0.2157874  -0.9776628   0.1860514
  -0.3936046   0.1103567  -0.2382922  -0.0193926   0.0393581  -0.0050559
   0.0496012   0.6434532  -1.1697466   0.4406330   0.4850489  -0.2401570
  -0.1517050  -0.0521113   0.1427852  -0.6061406  -0.3010983  -0.7833919
  -0.0265667  -0.4545241  -0.3442144  -0.1402244   0.2487916   0.3613429
   1.0321388   0.2790296   0.6938072   0.0199508  -0.8143464   1.2414569
  -0.0420571   0.1386292   0.0786508   0.0628199  -0.0674816   0.5296789
  -0.8225541  -0.5672846  -0.7219462  -0.1976942  -0.2596154  -0.0468826
  -0.8062072   0.3315103  -0.0532643  -1.0623724  -0.0927973  -0.4751628
  -0.0868869   0.1878131   0.1497869  -0.4695969   0.0063164  -0.1657748
  -0.0007397   0.6597249   0.1074543  -0.2454904  -0.3997641   0.0478733
  -0.5717763   0.0544139  -0.1825491  -0.7444923   0.3023852  -0.9759238
   0.0198279  -0.2276147  -0.0982763   1.0869758   0.3526477   0.2777054
  -0.8429944  -0.0525151   0.0941191   0.1971490  -0.0291271  -0.2138544
  -0.0067469  -0.2030966  -0.6452045  -0.1892475   0.0386043   0.2257631
   0.2647796   0.0405671  -0.3615951   0.1993246   0.0844848  -0.5915236
   0.4940707   0.1063180  -0.3538019   0.1384011   0.0034152   0.0294458
   1.3359362   0.0374367   0.6126205  -0.2103484   1.0797369   0.3968427
   0.2278770   0.2338928  -0.2302452   0.4969776   0.4372561   0.4872696
   0.5612957   0.4727577   0.6304370  -0.3382172  -0.0588319   0.3306002
  -0.3204234   0.1425564   0.0048727  -0.6563492  -0.3296501   0.8009539
  -0.0467878   0.1010044   0.1751453   1.1534248   0.3770632   0.2164870
  -0.1466318   0.2144780   0.2042794  -0.2239701   0.2812170   0.1711014
   0.1404917   0.1516718  -0.6901939   0.9592771  -0.1846566  -0.0271458
  -0.2113050  -0.0259990   0.0129701  -0.0530250   0.1557256   0.0027502
  -0.2591825  -0.2472384  -0.0992053  -0.2219257   0.1464684  -0.0888525
   0.8701732  -0.3327851  -0.8514040  -0.4676058  -0.9151633   0.7481277
  -0.0356171  -0.2058896  -0.0590900  -0.7476242  -0.7227697  -1.0225415
   0.7377630   0.5854288   0.2283570  -0.1647698  -0.3698503   0.3750250
  -0.8727543  -0.4739281   0.1364625  -0.1360607  -0.0256874   1.0261013
   0.1447947  -0.0917601  -0.1179221  -0.0452966  -0.1569491  -0.8395597
   0.1736580  -0.4221387   0.0120275  -0.1145796   0.2008493   0.0376227
  -0.2706488   0.1928474  -0.6686887  -0.6647573  -0.1547965   0.0163732
  -0.0086365   0.1538284   0.1983126  -0.3930965  -0.6718809   0.9395427
  -0.0220670  -0.1738553   0.0297020  -0.1312986  -0.2354328  -0.1588411
  -0.0604854  -0.4529300  -0.0253304  -0.4104264   0.2522216   0.0117703
  -0.0373225   0.1602281  -0.0354041   0.3272894   1.0837796   0.4374664
  -0.8313247  -0.1491741   0.4122874  -0.3208910   0.2726476  -0.1714244
  -0.6013175   0.1503065  -0.5480335  -0.1970908   0.8864004  -0.4439236
   0.0439640   0.1519930   0.0286970  -2.2972402  -0.8439431  -0.1163706
   0.2205600  -1.1666772   0.4060974   0.0739703   0.2290579  -0.2287729
  -1.4022333  -0.4676881  -0.7027852   0.8201389   0.5447243   0.3085801
   0.0305242   0.0683778  -0.0222913   0.8856108   0.3818698  -0.3440467
   0.2443555   0.4859956  -0.2972264  -0.2740599  -0.1054384  -0.0214091
  -0.3896198  -0.1530823   0.4362125   0.0661995   0.1238559  -0.9879944
  -0.2048388   0.0264680   0.0155372  -1.0110219   0.7402055   1.1089565
   0.0047032   0.1994668   0.0948552   0.1553415  -0.0628557   0.3494918
  -1.2292109  -0.5123614   0.5863044   0.5601478  -0.4281339   0.1223835
   0.1971095   0.0065995  -0.1962051   0.6230406   0.7635154  -0.4498355
   0.5214764  -0.3296281   0.6094153   0.1980215   0.1933673   0.0143050
   0.2321932   0.3486326  -0.1464091   0.2866805  -0.1922461  -0.4999907
   0.0340549   0.0634555   0.0872100   0.1436330  -0.4302295  -0.0275981
   0.1174708  -0.4140636   0.2413996   0.1500599  -0.0258147   0.0456192
   0.0936521  -0.4828045  -0.1349476   0.2251375   0.2386342   0.1264634
  -0.0825277  -0.3945210  -0.0780894  -0.1385457  -0.4854169  -0.1705745
   0.3283073  -0.4121487  -1.0943802   0.4011808   0.1360058   0.1360580
   0.3779370   0.0444971  -0.6081125   0.2590448   0.0725029   0.0949738
   0.0011724   0.1279026   0.2351127   0.1971160  -0.2064466   0.0975963
  -0.0279788  -0.0728304   0.0363668   0.0598495  -0.0596894   0.0870958
  -0.1358020  -0.2256106   0.3184850  -0.1157543   0.2156684   0.0806620
  -0.1106697   0.2004232  -0.3397937  -0.0469760   0.1637319  -0.4784913
  -0.4581819   0.1311389   0.4455734   0.2876293   0.3036579   0.1941929
   0.0502032  -0.1663431   0.0191391   0.2105935   0.4057121   0.4867591
   0.3931898   0.0023843   0.0696325   1.3762305   0.6597148  -0.3599988
   0.2333850   0.2622482   0.1791548  -0.4656603  -0.3410651  -0.0041156
   0.8130752   0.4452881  -0.8234659   0.9837204  -0.2025215   0.3639172
  -0.1205727  -0.2066536   0.0935462   0.2223975   0.3912501  -0.2860905
   0.2599087   0.0601304   0.0513790   0.0543617   0.3005955  -0.2555805
   0.4449022   0.2179626  -0.1374670  -0.1535005   0.4041659   0.0574397
   0.3748015  -0.1471775   0.4261066   0.8623243   0.0318837  -0.0819566
   0.0363962  -0.6650876   0.1073587  -0.3982301   0.2161977  -0.0678662
  -0.4913712   0.2379752   0.0318074  -0.9551649   0.3143449   0.5861731
   0.1356326  -0.0415673   0.0685790   0.0197015   0.0410606   0.2738894
   0.1361342  -0.1040995  -0.0843003   0.1974570  -0.1905265  -0.1193897
   0.3568844  -0.1002346   0.2539081   0.1118370  -0.2793264   0.5297807
  -0.1102307   0.0838674  -0.0373252  -0.5230945   0.3083032  -0.3014812
  -0.3263532   0.4012732   0.3968717   0.1866123   0.1601689   0.0451296
   0.9903125   0.2832029  -0.2754719   1.0617115   0.2753179  -0.4547653
  -0.1218329   0.1042851  -0.1014028   0.2547952   0.4680578  -0.6491069
  -0.2043663  -0.4012575  -0.0586784  -0.1895562   0.2540871   0.1205189
   0.3264895  -0.0823795  -0.2761719  -0.7096242   0.2537861  -1.3282736
   0.0576973   0.0877959   0.2534417  -0.4992283   0.6722094  -0.1176646
   0.3025120   0.2987674   0.8346922   0.2524179   0.2876356  -0.0601791
  -0.6407134   0.8558518  -0.0667998   0.0392341   0.0509332   0.2696184
  -0.2226714   0.0020513  -0.0482337  -0.1140759   0.3021787   0.3841372
   0.1338391   0.5424150  -0.1631835   0.0709832  -0.0985583  -0.2050365
   0.2431292  -0.3108301   0.2682934   0.0858868   0.0262178  -0.3338599
  -0.1860288   0.3924158  -0.0487016  -0.5271167  -0.2311826  -0.1819656
  -0.2266327   0.5031394   0.7024403   0.0825109   0.1840813   0.1462702
  -0.4051531  -0.1407436   1.1527279  -0.2313645  -0.5484942  -0.7873765
   0.1112627  -0.0299197   0.0694976  -0.1512243   0.3091500  -0.0885565
  -0.3062333   0.3287635  -0.1809340  -0.0854292   0.3159295   0.0612571
   0.0027210   0.6183486   0.2345212  -0.2665548  -0.0323027  -0.1666572
   0.3083463   0.0439442  -0.0772890   0.7271966   0.6730102  -0.0143197
  -0.8108055  -0.4503141  -0.4514002  -0.0877920   0.1294631   0.2869882
  -0.1151812  -0.0033233  -0.0521734  -0.3064809  -0.0678704   0.0404485
   0.0697505  -0.1819651  -0.0748481   0.3561027  -0.6543632  -0.4796447
   0.5348704  -0.0281981   0.2573535   0.2825522  -0.0976791  -0.0236577
  -0.1077678   0.0104847  -0.0432259   0.6671311  -0.6859985   0.5233886
   0.1169050   0.1119291   0.2105079   0.8312799   0.2523152   0.1151232
   0.7598059  -0.1758122   0.5885709  -0.2225986   0.1560809  -0.1341519
   0.1682260  -0.2683214   0.1684070  -1.1164801   0.7525493   0.6449066
  -0.2878088   0.1559321  -0.0647865  -0.1108189   1.0953339  -0.6059526
   0.4122659   0.3944616  -0.4703849   0.4759826  -0.0429380   0.1597636
  -0.8147453  -0.4052887  -0.2574484   0.5724893   1.2078207  -0.1921745
   0.0982380  -0.0774579   0.0191103   0.7100639  -0.4273933   0.1297233
  -0.3601223  -0.9425917  -0.2574350   0.1248286  -0.0954079  -0.1759546
  -0.0597170  -0.7690411  -1.1015218  -0.0808097  -0.1151553   0.0802776
   0.2151272   0.0618016  -0.0654897   0.0902425   0.6058124  -0.0713237
   0.0707145   0.1710014   0.0660993  -0.3561765   0.1491247   0.0554887
  -0.0748122  -1.2113332   0.6062780  -0.4854989  -0.0205570   0.1175248
  -0.1687720   0.1062522   0.3542408  -0.4019086  -0.2395651   0.6380097
  -0.1869621   0.1585517   0.0808407   0.4119720   0.0410130   0.1572498
  -0.0406053  -0.2362618  -0.2514199  -0.0634591   0.8756511  -0.6464428
   0.1438013   0.0253800   0.2225352  -1.0655338   0.1776418   0.5524861
   0.7551285   0.3389895   0.9282023   0.1441596  -0.2524450  -0.1511116
  -0.2021624  -0.0515377  -0.2183004  -0.1014456  -0.0712978  -0.0765441
  -0.1722814  -0.1391813   0.0427044  -0.3116311  -0.3276631   0.2726809
   0.1089905   0.0708458   0.1943528  -0.0016733   0.2212338   0.0626325
  -0.0806895   0.3767082  -0.1724522  -0.0926685   0.5804004  -0.1035320
  -0.0856515  -0.0853661  -0.2035119   0.6028515   0.1522260  -0.1926721
  -0.5068822   0.0582627   0.3760164  -0.1017312  -0.4058328   0.2634289
  -0.0907720  -0.3719643   0.2813269  -1.1515208  -0.5133419  -0.0998647
  -0.5491515  -0.0756625   0.1018958  -0.8089939  -0.2595980  -0.8535157
  -0.3263958   0.9851786  -0.6929305   0.2164669  -0.3539765  -0.1454581
   0.1487146  -0.4262856   0.0827259   0.0868702   1.0395840  -0.2758372
   0.0251430   0.0820584   0.0471546  -0.6331464   0.2928156  -0.1180434
  -0.0222366   0.6593551   0.6468099   0.0098013  -0.1109279  -0.0234696
   0.1470659  -0.2005825   0.0414279   0.4700907   0.1839148  -0.2205997
  -0.2615581   0.0407948   0.0781156  -0.0373101  -0.2336073   0.4483944
   0.4260126   0.2893556   0.1869554   0.1695359   0.2502218  -0.0968484
   0.0868621   0.6698161   0.5458442   0.2161941  -0.0321860  -0.9990910
  -0.1803614  -0.0617760  -0.1947384  -0.0564029  -0.3152952   0.4034483
  -0.6739244  -0.2348919  -0.0962045   0.0710319  -0.1880227   0.1933155
   0.2227265  -0.7462041   0.0305975  -0.0897635  -0.8857184  -0.1670294
  -0.0615275   0.0032338  -0.0135850  -0.0355047  -0.0597236   0.2013555
  -0.1188787   0.0406442  -0.2067554  -0.1204458   0.1630242  -0.0335694
   0.0887356  -0.1621483  -0.6520706   0.1376441   0.2353961  -1.0157316
  -0.2705008  -0.1727275   0.1439332  -0.2344995  -0.1192203   0.0476472
  -0.4863676   0.4711515   0.1593597   0.1051596   0.2267399   0.1182024
   0.3050576   0.5071679   0.3169892  -0.2561862   0.3322305   0.2503847
   0.3859641   0.4981608   0.5302361  -0.1283843  -0.2899543   0.4100403
   0.7477556   1.0891756   0.6598113  -0.0196144  -0.1139122   0.1640108
   0.7398690   0.0755653  -0.1339743  -0.2042972  -0.5718034   0.3117209
  -0.2998571  -0.2111231  -0.3772501  -0.0947370   0.3370873   0.5369798
  -0.2638077   0.4088606   0.1025070  -0.0999573  -0.2439755   0.2526071
   0.1935408  -0.1707811  -0.5124597  -0.3503940  -1.1227454   0.2611556
   0.1162123  -0.2232474  -0.3755071  -0.5168022  -0.1035019   0.5571962
  -0.3116133  -0.5499716   0.8111068  -0.0965617   0.0005498  -0.3909659
   0.1573066   0.8854404   0.4811096   0.5364402  -0.7274812  -0.8114506
   0.0647081  -0.2803120  -0.1048620   0.3700938  -0.3405043   0.1908316
  -0.4772319  -0.3050999  -0.4522211   0.0168266  -0.1249187   0.3261906
  -0.3412092   0.3219197  -0.1681285   0.7579736   0.7451689   0.9518205
   0.0113980  -0.0168591   0.4679014  -0.2354756   0.0760021   0.9417923
   0.3681211  -0.5217467   0.4958221   0.2342143  -0.1675326   0.1909990
   0.4310281   0.1133561  -0.8462280  -0.2729585   0.6717660   0.1672189
  -0.2191352   0.1177124   0.2354361   0.2932301   0.2165259   0.0137299
   0.3126178   0.2315432   0.0427060  -0.1047019  -0.0637745  -0.0344072
  -0.3225282  -0.7978237   0.0275753   0.4820001   0.3998180   0.0081065
   0.1783561  -0.0218889  -0.0441665   0.6982850  -0.8289029   0.4400802
   0.3933797   1.1565892   0.1049478  -0.1119188  -0.3467188   0.0838126
   0.6266580  -0.4203847  -1.1035344  -0.1113625   0.1702757   0.1249769
   0.0298070  -0.4142911   0.2404557   0.6850522  -0.5656192  -0.3673378
  -0.6670523  -0.3243718   1.0814971   0.0792699  -0.0716008  -0.1541902
  -0.2475915  -0.4988133   0.6077801   0.8564082   1.0295934  -0.9022848
   0.4600596  -0.0974602  -0.1549876   0.3398350  -0.0687047   0.1612307
   0.6726763   0.0022189   0.3672538  -0.0033500   0.0765948  -0.2694847
  -1.2425739  -0.1336910  -0.2404546   1.5953169  -1.0861868  -0.1453526
  -0.2012676  -0.1226972  -0.2236189  -1.4605118   0.3938797  -0.2787223
   0.3166042   0.5899821   0.2899045   0.0107599   0.0655966  -0.0181818
  -0.0386875  -0.5005793   0.2197217   0.5669207   0.1965920  -0.9241507
  -0.2416204   0.2092661   0.0328839  -0.5410506  -0.6569391   0.5331202
  -0.5906182   0.9127921   0.6176146  -0.1502040  -0.1006401  -0.1403012
  -0.0926348   0.6778625  -0.5678892  -0.7549747  -0.7117405   0.5322168
   0.3454593   0.2025167   0.0794427   0.1521575  -0.4383383  -0.8544449
   0.3206108   0.0094434  -0.5401438  -0.3554826  -0.0401783   0.3568537
  -0.0864442   0.3742061   0.6715829  -2.2624920   0.5219714   0.6736467
   0.2733915  -0.0317537   0.0015102   0.4839417   0.8420283   0.0079351
  -0.1952644  -0.1720655   0.7804603   0.1260851  -0.0325836   0.1102081
   0.0753453   1.2055272  -0.1105516   0.1436788  -0.5818109   0.2172388
  -0.1809487   0.1238733   0.0185618   0.1652148  -0.4355473   0.0576734
  -0.5276876   0.4242335  -0.1502022   0.1198193  -0.0716775  -0.0337138
  -0.0811015  -0.0039677  -0.3207482  -0.4531758  -0.2986181   0.1148601
   0.2913563   0.0784097   0.1404805   0.1484074   0.2170984  -0.5556334
   0.3120993  -0.3170568   1.5209654   0.0972541  -0.1362392  -0.0123092
   0.3054906   0.4508371   0.1695432   0.1667939   0.1336645   0.1768803
  -0.0188419  -0.0519111   0.2116484   0.7056841  -1.4533910   0.4401567
  -0.0530318   0.4691607   0.8598730  -0.1407707   0.3358272   0.2109755
  -0.0652037   0.4578402  -0.0508596  -0.1116175  -0.0671871   0.7513094
  -0.0558375  -0.1089728   0.0332637   0.3588649  -1.0302303  -0.4002878
  -0.0624028   0.0141005   0.6890276   0.3178568  -0.1695479  -0.0713454
   0.4007412   0.3526749   0.9909447  -0.7849534  -0.1450006   0.2160948
  -0.1677710   0.2250616   0.0195998   0.2574433   0.3663841   0.0504263
  -0.1316391   0.3794681   0.3830913  -0.2566578   0.2224194   0.0358912
  -0.9741312   0.3070387   0.0518479  -0.4173296  -0.5324785  -0.0501975
   0.0794234  -0.1481748   0.0719432  -0.2752109  -0.4715758  -0.4145976
  -0.4644131  -0.2113377  -0.6989272   0.1093735   0.0120684   0.0373053
   0.6879799   0.0182942   0.2059842   0.1123474  -0.2960822   0.7258160
   0.1256026   0.0422477  -0.0577652  -0.7673397   0.1723046   0.0833350
   0.6795172  -0.3252581  -0.2727144  -0.1628115   0.2220047   0.1907147
  -0.4025968  -0.1421384   0.6423913  -0.0072997   0.5291790  -0.1740905
   0.2367902   0.0434918  -0.0874155  -0.2103380  -0.1591146  -0.7301040
   0.7155467   0.5919801   0.6427540  -0.1351645   0.0293124  -0.1270827
   0.3541094  -0.0423159  -0.1326345  -0.8072980   0.2318971  -0.7582664
   0.0380400  -0.1852786   0.0160270   0.1061964   0.6852063   0.1029697
   0.2047288  -0.4251395   0.5291231   0.3799660   0.0733836  -0.0586807
  -0.3380449  -0.3017668   0.1920705  -0.0160433  -0.3258517  -1.1146681
   0.2599820  -0.1003027  -0.2218641   0.2521604  -0.0873327  -0.2931965
   0.5900261   0.4066151  -1.8370790   0.0842898   0.2445712  -0.1009358
   0.8536312  -0.1831766  -1.0656927   0.1449963   0.4077712   0.9399763
  -0.3303012   0.1774313  -0.3421275  -0.2029202  -0.4756601  -1.4158588
  -0.3970105   0.0722566  -0.0633928   0.1235458   0.0157079   0.2443656
  -0.7597603   0.2924968  -0.3937097   1.0292941   0.3205964   0.9043714
  -0.0470467   0.2904228  -0.1525558   0.7704771   0.5026014   0.4726874
  -0.1779009   0.2541220  -0.2843174  -0.0169379   0.0763136  -0.0533804
   0.6066187   0.5569608   0.5072352   0.2801916   0.3522762  -0.4088748
  -0.0046122   0.0231771   0.1502575   1.3628578   0.1516481   0.9199179
   0.4709131  -0.1177651   0.3618473  -0.0889519  -0.2960966   0.3169907
   0.9390521   0.9179212   0.5915830  -0.5142461   0.0774084   0.0069553
   0.1017172  -0.0586878  -0.0436112   0.0422878   0.0736934  -0.1514564
  -0.0181493   0.1465428  -0.1492783   0.1666152   0.1831924   0.0951571
  -0.1486881   0.3394213  -0.0580690   0.1055351  -0.0031860  -0.1743934
  -0.2947344   0.1912539  -0.0375238  -0.2114115  -0.3142418  -0.5519797
   0.6036687   0.7557001  -0.2021221  -0.3166404  -0.0647512   0.2155401
   0.3099253  -0.7606856   0.3493076  -0.6715858  -0.4847421  -0.3958505
  -0.1925500  -0.1641258   0.1774781  -0.6269751   0.0348758   0.8376141
   0.1744513  -0.2946115  -0.3872051  -0.2257854   0.0106506   0.0129084
   0.4149941   0.5351524   0.1189024  -0.3825432  -0.3403846  -0.6581305
   0.0345643   0.0838980  -0.0422845  -0.1644238   0.4041835  -0.4461821
   0.5155739  -0.4760208   0.0377501   0.4068935   0.1354409  -0.0880496
  -0.2280842  -0.1690263  -0.8424644   0.5981120   0.1283945   0.7774704
  -0.2246441  -0.2036972   0.3546255  -0.8863814   1.4043412  -0.0996361
  -1.2742887  -0.7590083   1.0071182   0.0211966  -0.0139065  -0.1987761
  -0.0218209   0.6323016  -0.5909939   0.1739142   0.2342308  -1.0504626
  -0.0771090   0.0320075  -0.1107645  -0.2217886  -0.0691208  -0.2810868
  -0.2587251  -0.0234467  -0.8787168   0.2252790  -0.1093397  -0.0841556
   0.4087538  -0.3247599  -0.3245545  -0.0157974   0.1994547   0.2569015
  -0.0046679  -0.0811823   0.1480636   0.1691563   0.1515972   0.0146854
  -0.7411923   0.0868750   0.5410477  -0.1772796   0.3604714   0.3543696
   0.2477139   0.6693066   0.2039823  -0.5285576   0.2797573   0.4462560
   0.4042979  -0.1276835  -0.3489257   0.6123668  -0.9083686  -0.6465215
   0.2315386   0.3530526  -0.3149115  -0.2309389   0.2304040  -0.2649440
  -0.0428792  -0.1191013  -0.6382643  -0.5698133   0.3179358   0.0138600
   0.1722588  -0.0627983   0.1459278   0.5887057  -0.1602135  -0.1566122
  -0.0749733   0.0265548   0.3517551  -0.0739659  -0.2527553  -0.0600421
   0.3663697   0.2987279  -0.1084623   1.0757960  -0.6479322   0.3588192
   0.6759533   0.1143082  -0.0792659   0.5759852  -0.0976704  -1.5312353
  -0.6221906  -0.5654279  -0.5832393  -0.0268697  -0.0541402   0.2490233
   0.3533270   0.9121008   0.9101624   0.3915811  -0.1151590  -0.4007267
  -0.0198151  -0.0439237  -0.0649705   0.4339966   0.8448314  -0.3409678
  -0.1111796  -0.1320979  -0.1720397  -0.0712290  -0.0814647   0.3846455
  -1.4688881  -0.4109277   0.5595852   0.2308757  -0.2153320   0.7736400
   0.0145684  -0.2515017   0.2657981   0.4326673  -0.5016431  -0.3061418
   0.5608405  -0.0263287   0.6133812  -0.1004731  -0.0810651  -0.0559218
  -0.9182860   0.7448672  -0.1189981   1.2214086   0.6032981  -1.3655856
  -0.1957560  -0.1579093   0.0227869  -0.2486003   0.1136429  -0.3397658
  -0.3264009   0.1486124  -0.4398859  -0.1073052  -0.0981603   0.1497039
  -0.4387667  -0.4656334  -0.0285674  -0.2070833   0.1269222   0.0102696
   0.0111540   0.2871800  -0.1493389   0.2027996   0.0170554  -0.7113079
  -0.2610479  -0.2070738   0.1926017  -0.2312535  -0.3402254  -0.2211095
  -1.1797830   1.1943494   0.4292364   0.1872381   0.0927770   0.1790519
  -0.1421680   0.2658955   0.1334525   0.1877629   0.0345480  -0.2113725
   0.3838948   0.3324928  -0.1399149   0.1610714   0.1606085  -0.2552923
   0.4385489   0.1122340   1.3761841   0.0795359  -1.2663974   0.3142786
   0.2708119   0.0153923  -0.2415531   0.0439936  -0.3605282  -0.3440082
   0.3699146   0.2367318  -0.0497832  -0.1125506   0.2574852   0.1188763
   0.3237146   1.1221005  -1.3689392  -0.0234612  -1.3722114  -0.3036405
  -0.1539199  -0.3197192   0.0551546  -0.0328684  -0.6193772  -1.0453376
  -0.1591138  -0.3691788  -0.2860325   0.1733564  -0.2468336  -0.0479251
   0.4233090  -0.3889603  -0.2144813   0.2403164  -0.3935623   0.4131177
   0.0551218  -0.0322795   0.0350397  -0.2349912  -0.0318170   0.4265581
  -0.3683668  -0.7194739   0.8768528   0.0965964  -0.1793268  -0.0289347
  -0.2394572  -0.7108023  -1.0760397  -0.4132177  -0.1623441   0.3458475
   0.0002988   0.2586671   0.1200297  -0.2676577   0.3740953   0.3348736
  -0.0345225   0.0011697  -0.1349249   0.1497907   0.2380517   0.3501092
  -0.1038988   0.3339221   0.7053701  -0.0375573   0.5105422   1.0499714
   0.1012283   0.1057017  -0.0020225   0.2538391   0.0630119  -1.0829707
   0.4239153   0.0881781   2.0225093   0.1013761   0.0559806   0.1290581
   0.9487635   0.4373296   0.1862245   1.4445983  -0.6767551  -0.3880504
   0.1932218  -0.1039139   0.0897573   0.6891250   0.5341029   0.8135870
   0.2609557   0.7518703  -0.3094311   0.0000633  -0.1255306   0.0376663
   0.4071685  -0.7200428   0.8558340  -0.4286573   0.5462105   1.4105861
   0.1118633   0.0724309  -0.3948578  -0.7666213  -1.6635033  -0.0688718
  -0.5040248  -0.0965335   0.0113314   0.3614391  -0.2377094   0.0214139
  -0.1407480  -0.5817838  -0.1203139   1.6553185   0.5788088   0.2404371
  -0.4350256   0.1074028  -0.3510249  -0.6201989  -0.5544417  -0.4384962
   0.1071436  -0.4639242  -0.0222730  -0.1273124  -0.1603605  -0.1475799
  -0.3894671  -0.8805268  -0.3823449   0.1404453   0.9718289  -0.0547621
   0.1027848   0.1435793  -0.3219856  -0.2922639   0.2442990  -0.4140713
   0.2699923   0.4916223  -0.4525142   0.1947573  -0.1137105  -0.2782109
  -0.0249528   0.9247262  -0.9182358   0.0481090  -0.6776381   0.3115142
   0.1758637  -0.1409146   0.2333701   0.4565279  -0.3622229   0.1183028
   0.7440563   0.1369279  -0.2768170  -0.0962898   0.1535723   0.0596001
   0.0316122  -0.1382341  -1.2394040  -0.1396088  -0.0722111   0.7632806
   0.0026677  -0.1053783   0.1700700  -0.0097730  -0.3506046  -0.0177121
  -0.0047209   0.1289838  -0.0223217  -0.0230695  -0.6468411   0.0907699
  -0.6945445   1.1312020  -0.2147316   0.3890043  -0.4664692   0.3183798
  -0.0254365   0.0065689  -0.3356632   0.2361906   0.2258064  -0.1516052
  -0.3472971  -0.3146761  -0.5489115   0.0466959  -0.0181454  -0.1899359
   0.6954558  -1.2891166  -0.3702159   0.4961776  -0.1248675  -0.7288286
  -0.0305747  -0.1424535   0.1121293   0.4147015  -0.2104246  -0.4027468
   0.0769175   0.5577829   0.6140052   0.0163619   0.2619299   0.1223723
  -1.1518665  -0.1144752   0.4235861  -0.5493393  -0.1516067   0.2293129
  -0.0132579   0.0817392   0.1461783  -0.6302034   0.3367283  -0.0856584
   1.4453374  -0.2380989   0.8139428  -0.1979939   0.3009014  -0.0924135
  -0.1183524   0.0025850   0.3087220   0.0035753  -0.3579729   0.8941706
  -0.1512854  -0.1117148  -0.2572602  -0.4230786   0.5385165   0.3301450
  -0.3322239   0.2165135   0.2333263  -0.0433342   0.1918273   0.0647253
  -0.5595682  -0.1718246   0.6088334   0.9510593   0.1960423   1.1252410
   0.2428847  -0.3169710   0.1025687   1.1118692   0.1263441   0.5651408
   0.9838025   0.9242957  -0.1298156   0.1831546  -0.3416940  -0.0021873
  -0.0008169  -0.5483710  -0.3900270   0.0522244  -0.0399362  -0.4651682
  -0.0485017  -0.2360352  -0.0817314   0.2427622  -0.7393126   0.5969745
   0.6746992  -0.6267377  -1.0482408   0.0865893   0.0829177  -0.2863631
   0.3509702  -0.2644841   0.2009563  -0.3990048   0.5014565  -0.0216497
  -0.1243065  -0.3066862  -0.2581732   0.1906711  -0.0355522  -0.4676619
   0.8124764  -1.2456225  -0.3987937   0.2541170  -0.0162328   0.2357695
  -0.1919801  -0.4514194  -0.1790457   0.3617728  -0.0309401   0.4886495
   0.1042436  -0.0864849   0.2087613  -0.0873408  -0.1365936   0.9155713
   0.5502500  -0.2775015   0.3819473  -0.3865437   0.0177915  -0.0839466
  -0.3560423   0.6719298   0.2853258  -0.4285701   0.3150998  -0.9579377
   0.3270979  -0.2205883  -0.1543861   0.2985865  -0.2424068   1.1446151
   0.8374982  -0.0010481  -0.8627617  -0.0346334   0.1731085  -0.2023419
   0.1485220   0.6528445  -0.3892681   0.2773663   0.5944956   0.1630418
  -0.1888097   0.1631143   0.1835735  -0.2125119   0.2877568   0.4745622
  -0.1972937   0.1760996   0.2345593   0.0140375   0.0763678   0.2358864
   0.7682495  -0.7113616  -0.0523400   0.1998476   0.5871892  -0.5194237
  -0.1378214  -0.0870514  -0.1653618  -0.1825171   0.8445512  -0.8441939
  -0.0790972  -0.5229300  -0.2471482  -0.2916441  -0.0905224  -0.2897551
   0.2865313   0.1688408  -0.5134566  -0.0004885  -0.2240079   0.3889182
  -0.1000850  -0.0141177   0.3099436   0.0937406   1.7728130   0.5111617
   1.3668286   0.1311646  -0.1267522   0.0226687   0.0076396  -0.0030486
   0.4162410  -0.1142053   0.6790949   0.1090012  -0.2075231   0.6708060
  -0.0678480   0.2525768   0.2172817   0.2900590   0.2185592   0.2901567
   0.2958258   0.6243261  -1.2746977   0.1988036  -0.2073262  -0.1116884
  -0.3786932   0.2918649   0.2980625   1.0416885   0.6799383  -0.3458786
   0.0924629  -0.3280659  -0.0187770   0.2068516  -0.3219044   0.0182349
   0.0888188  -0.3968782   0.0330973  -0.0325307  -0.2350411  -0.0798898
   1.2685404  -0.2802303  -0.5460734   0.1149106  -0.3605317   1.3207303
   0.0699536  -0.0710684   0.1111398  -0.1155455  -0.7803892   0.4358493
  -0.7676254  -0.4875077  -0.1521148  -0.1808110   0.1813223  -0.3238083
   0.0211066  -0.3017292  -0.2410258   0.1752096  -0.6667260  -0.1827036
  -0.0905038   0.0476955  -0.0765962   0.0582299  -0.6357895   0.1574698
  -0.4674525   0.2738146   0.2534432  -0.0408135   0.0051891  -0.1408874
   0.1729958   0.3317607  -0.5415288  -0.5872712  -0.5958357   0.3962205
   0.1009364   0.0422755   0.0611537  -0.0201099   0.0545165  -0.0130716
  -0.3461499  -0.8350506  -0.2362986  -0.0337187   0.1986729   0.1146675
  -0.4749276   0.2287349   0.7092343   0.1591495   0.4362851  -0.4427645
  -0.1549527  -0.1634107   0.0339710   0.6357984  -0.8359192  -0.2213107
  -0.5765979   0.2331531   0.2231089  -0.1450047   0.1226477   0.0140577
  -0.7110288   0.2064119   0.1943241   0.1662615   0.2145851  -0.5613627
   0.1231315   0.0902123  -0.3416762  -0.6519906   0.0117670  -0.4486137
   1.2705826   0.1692490  -0.1575468  -0.2015076  -0.0342180  -0.0604238
   0.1734180   0.1039052   0.2604974  -0.0348200   0.6899231  -0.5869849
  -0.2754105   0.0326999  -0.0728838  -0.2656119  -0.5496685  -0.1063126
  -0.1024788   0.2092538  -0.1032977  -0.0074425   0.1190340  -0.0466594
  -0.0097291   0.1366685   0.1532429  -0.0561456  -0.0658930  -0.5338561
  -0.1735275   0.0082314   0.1242982  -0.3026388   0.9997944  -0.3006582
   0.6453120   0.9629409   0.4890267  -0.1583716   0.1448468  -0.1494209
  -0.4522097  -0.3983673   0.3647655   0.4294160  -1.0929383   0.1932192
  -0.0724654  -0.1003434  -0.3106433  -0.5720991   0.1432065   0.4627642
  -0.5311638  -1.3636158  -1.5029594  -0.3672357  -0.0533552  -0.1682465
  -0.8721327  -0.6604396  -0.6564673  -0.4657279   0.6619942   1.0531978
  -0.0505223   0.1083464  -0.1999987  -0.1756056   0.2073370   0.0940832
   0.0858764  -0.0898816  -0.0539862  -0.0431675  -0.4365350  -0.0294516
   0.2332538  -1.0575502   0.0001523   0.5726927   0.0288452  -0.2149198
  -0.0594744   0.0976445  -0.3222251   0.9271842  -0.6692689  -0.6554931
  -0.6712380  -0.0010646   0.4666978  -0.0322499  -0.0223957  -0.1268103
   0.0868792  -0.0817615   0.0345628   0.0375435  -0.6744057  -0.4462365
   0.1468897  -0.1465644   0.1802327   1.1014097   0.8185234  -0.1246568
  -1.0072821   0.5688135   0.0213789  -0.1790346   0.2418088  -0.0913771
  -0.9754358  -0.3185230   0.4124065   0.2034042   0.7768939  -0.0811519
  -0.1034483  -0.1475804  -0.4713305  -0.1004062  -0.5852316  -0.3805569
  -0.0310549  -0.4054472  -0.5290169   0.1963536   0.1633045   0.2322168
   0.0515986   0.0892721  -0.3971523  -0.4841211  -0.6700255   0.0958696
   0.1205477   0.0121276  -0.1318234  -0.5303798  -0.2080891   0.3014990
  -0.1746139  -0.1739367   0.2262506  -0.0381412   0.0727910   0.0093246
  -0.1429996   0.2922759   0.1720576  -0.1432485   0.2974586   0.1214144
   0.3445945   0.0549485  -0.2010839  -0.0144977  -0.3814747  -0.3862813
  -0.0708582   0.4246150   0.0479989  -0.1222839   0.3722144  -0.5613911
   0.1163275  -0.3444975  -0.6629465   0.0691497  -0.0327382  -1.2256089
  -0.1337308  -0.0285816   0.3532229   0.0989373  -0.0876600  -0.0274185
  -0.6003257  -0.0569436   0.3050677  -0.0126773  -0.1901685   0.1641997
  -0.6877411  -0.8089291   0.0854924   0.2443267  -1.0235740  -1.1050653
  -0.0529127  -0.1625916   0.3132056  -0.3309837  -0.4610501   0.1859195
   0.2548519   0.0151192   0.9035725  -0.0567372  -0.0806780  -0.0336117
   0.6349526  -0.0778302  -0.1616436   0.7210629  -0.0787466  -0.1771018
   0.0003618   0.2388350  -0.3250846   0.1836898  -0.8771148  -0.4889958
   1.0085855   0.5911120  -0.1215993   0.2194899   0.0235515   0.1270124
  -0.3900087   1.1499136   0.3101908  -1.0190090  -0.5990195  -0.1075275
  -0.1515591  -0.1481616  -0.1650056  -0.1399158  -0.3092524  -0.2703309
  -0.1383762  -0.1467720  -0.1791451  -0.1269750   0.0976916  -0.4010549
  -0.0761054  -0.2760538  -0.0955128  -0.1286587   0.0122946  -0.3439936
  -0.1169876   0.1096447   0.1433192   1.7663360  -0.7805373  -1.0817119
   0.4592100   0.2179580   0.1597527  -0.0796549   0.2085752  -0.1850750
   0.7295629  -0.8357318  -0.1294233  -0.7352175   1.1157177  -0.1581795
  -0.4185591  -0.1843574  -0.0031715  -0.8228943   1.2020378   1.0069017
   0.2340758   0.2884456  -0.6491111   0.0488472  -0.4741880  -0.0222195
  -0.4119191   0.8243258  -0.9968437   0.1203409  -0.6858766   0.1451008
  -0.0003268   0.0430072   0.4208228   0.0125795   0.0944951  -0.2897051
  -0.1676546   0.0630073   0.0145760  -0.0626339   0.0580156  -0.3509993
   0.4352633  -0.1513253  -0.4672282   0.5686885  -0.6848082  -0.4705579
  -0.2410330   0.1635823   0.1539405   0.3739732  -0.1044901   0.0233078
   0.9019900  -0.3579108   0.0006785  -0.0316266  -0.1466225  -0.3422430
  -0.7954691   0.1573724  -0.6542006  -0.0971176  -0.5701599   0.4042415
  -0.2016414  -0.1883716   0.0129996  -0.2736323   1.2992816   0.7364576
   0.0591533   0.0645789  -0.0389361  -0.0789805   0.0909389  -0.1870916
  -0.0242905  -0.5520437   0.3016663  -0.1463774   1.2980703  -0.8739072
  -0.0227807   0.3445189   0.0921628  -0.1480214   0.1028303  -0.4192762
  -0.0301366  -0.0986536   0.4351275  -0.2563549  -0.1436904   0.2757338
  -0.4196120   0.3739853   0.6625087   0.5932731  -0.3002874  -0.1658634
   0.0089664   0.1766123   0.0145038   0.0578852  -0.0899453  -0.4259751
  -0.1505348   0.7102505   0.1877904  -0.0036125   0.3936862   0.2809611
   1.1579909  -0.9986402   1.1276811  -0.5842011   0.8258695  -0.2643213
   0.0768649  -0.1947927  -0.1694402   0.3643342   0.2992187  -0.5973887
   0.2886893  -0.6547748  -0.1427785  -0.0829175  -0.0280291   0.1984745
  -1.3009515   0.3618722   0.4466389   0.1806750   0.3809637  -0.2335426
   0.2797739   0.1378264   0.1702905  -0.0991595   0.3112876  -0.1403681
   0.1787022  -0.3438477   0.2133294   0.1119344   0.0334414  -0.3536129
   0.2409721  -0.3187863  -0.7402201   0.0919291   0.4578717  -0.1402732
  -0.1680131  -0.0072632   0.1657790  -0.1396548  -0.1572824   0.2865790
  -0.8692467  -0.2053833   0.0920502   0.3113311   0.0822636   0.1720769
  -0.7340716  -0.1313087   0.7359879   0.5641027   0.1495012   0.0494105
  -0.1146035   0.0875533   0.1039879  -0.1212419   0.1553686  -0.0226210
  -0.6761841  -0.6903210  -0.0439226  -0.0234716  -0.1108811  -0.4442430
  -0.9621846  -0.1552179  -0.3122728  -0.0898266   0.7210375  -0.9657218
  -0.1496618   0.1394693   0.1279698   0.4452527   2.2176974   0.0334510
  -0.0092807   0.5954297   0.1248844   0.0327401  -0.1382095   0.2756526
  -1.2676122   0.4435956   0.5634328   0.1398303  -0.4932143   0.0900492
  -0.1862592  -0.1429439  -0.0619654  -0.9531227  -0.8969443  -0.1940261
   0.2077771   0.5143206   0.2595004  -0.4350585  -0.0759440   0.0168765
   0.1059260  -0.7654402  -0.1801743  -0.0592321  -1.6080840   0.1277334
   0.0665293   0.1009979   0.1980762   0.3293994  -0.1508778   0.4382648
   0.7567932  -0.0318193  -0.0656632   0.3441266   0.0502810  -0.0345060
  -0.6352827  -0.0224412  -0.6522282   0.7254185  -0.5097767  -0.2129618
  -0.1856970  -0.1902834   0.3006973   0.6086081  -0.4432601  -0.1446837
   0.6417963   0.0870072  -0.5655895  -0.0935357   0.1141011  -0.1796640
   0.2308334  -0.3049822   0.1413856  -0.2866374  -0.2440601  -0.3871249
   0.0115181  -0.1914467   0.0591992  -0.2718270  -0.1447376   0.0804508
  -0.1103322  -0.0692221   0.2112903  -0.1155895  -0.2492842  -0.0241853
  -0.3547853   0.4377876   0.3753805  -0.2448178  -0.4407116  -0.0999806
  -0.0230938  -0.0113023   0.1092442   0.5847746  -0.9762275  -0.7671867
   0.3040186   0.7564321   1.1699264  -0.0530973   0.1691136   0.0889924
  -0.6492639   1.2258611   0.2468052  -0.1458933  -0.1723999  -1.2382578
  -0.0725397   0.1002398   0.1549753  -1.2017110  -0.0489774  -0.1621471
  -0.1584912   1.0043225   0.6407681  -0.0774155   0.0534992  -0.2300783
  -0.4949343   0.4497186  -0.3002525  -0.2398039   0.8518038   0.1510773
  -0.0149252  -0.0673747   0.0192542  -0.0570698  -0.0511765   0.0388531
   0.0124954  -0.1653422   0.0367403  -0.1323085  -0.2122394  -0.1181500
  -0.7464375   0.8122995   0.5865491  -0.0279409   0.3436162  -0.7963958
  -0.1230577   0.0123877   0.0845196  -0.2772497   0.4411786  -0.1088399
  -0.3457060  -1.0115943   0.1052106   0.1231453   0.1508511  -0.3152319
   0.2275781  -0.8053918  -0.2560431  -1.2516018   1.0734378  -0.1235498
  -0.1267072   0.0969115  -0.1237064   0.9489837   0.5794896  -0.0509261
   0.0477858  -0.9985516  -0.3736394  -0.1671199   0.1831610   0.2731525
  -0.4103367   0.4008974   0.2965494  -0.6656940  -0.1917357   0.6856627
   0.0229228   0.0500125   0.2088278   0.8412242   0.5141435   1.2035817
   0.7111693   0.6215703   1.1219066  -0.0092264  -0.1052481   0.0599502
   0.2975565  -0.7078502  -0.0427877  -0.0185834  -0.2490607  -0.2793998
   0.0271404   0.1297032  -0.2879315   0.5305283  -0.0527803  -0.1303144
   1.1037496   0.2430614   0.6996854   0.1006024   0.0656888  -0.1343339
  -0.0480569  -0.7189670  -0.0777048  -0.0603402  -0.0185546  -0.2806277
   0.1213235   0.1032220   0.0444439  -0.2778193   0.1939273   0.0947111
   0.0450901   0.3756934  -0.2754464  -0.2476854   0.0653530  -0.1123439
  -0.1571284   0.2336237   0.0363004  -0.4440795   0.1003101  -0.4616488
   0.1194100  -0.2006375   0.1485441   0.6538434  -0.2660870   0.0204247
  -0.1030163  -0.6319276   0.1442728   0.1997866   0.1263459   0.1095618
   0.4153062  -0.8948755   0.5623710  -0.5279368   0.6621564   0.9424735
  -0.2804957  -0.3287922   0.0950617   0.0978602   0.2466655  -0.1486743
  -0.9367291  -0.2149148  -0.0517766  -0.1875213  -0.3697625   0.1097133
  -0.0926095  -0.4833169   0.2734618  -0.0973926  -0.4746572   0.2448037
   0.0513706   0.0144892  -0.1086424  -1.0872316   0.3368462  -0.5116217
   0.4504917   0.3098368   0.0009723  -0.0561379   0.0047323  -0.1370652
  -0.4533516   0.0261326  -0.2378635  -0.1382183   0.2341338  -0.2953105
  -0.0890986  -0.0404356   0.0083117   0.1507626  -0.5099444  -0.1558509
  -0.0703427   0.5392109   0.2739920  -0.0512578  -0.0476479  -0.2953845
  -0.9231157   0.0760648  -0.2480262  -0.2910221  -0.0395833  -0.1514468
   0.0461215  -0.0236997   0.2395715  -0.3435974   0.0163301  -0.0238518
   0.3481506  -0.0425805   0.3064233  -0.0593397  -0.2994495   0.0771169
   0.1504061  -0.1504043   0.1453248   0.3404558  -0.1216289   0.0930324
   0.0791704   0.2390988   0.0974721   0.7706771  -0.3240532  -0.4070337
   0.1129240  -0.7364471  -0.0808377  -0.0182867   0.0513744  -0.0740384
  -0.1435502  -0.0310503  -0.4123928  -0.2276115  -0.0558752  -0.7446703
  -0.1437055  -0.0616871   0.1302936  -0.9664030  -0.7593745   0.1117150
  -0.6709378   0.4005344   0.7252246   0.1114788  -0.1956840  -0.1273336
   0.3907660  -0.1960059   0.8555436  -0.2713524  -0.2334562   0.0928566
   0.0057760  -0.1350110   0.3019849   0.2770183  -0.6828310   0.2980604
  -0.0904848   0.4410778   0.4781059   0.1221550   0.1028761  -0.0587215
   0.3154464   0.6530907   1.0014298  -0.4902543   0.8634834  -0.6545766
  -0.0159214  -0.2018258   0.2933896  -0.8301828   0.3531358  -0.1118350
  -0.2567769  -1.1505695   0.4025684  -0.1704564   0.1369638  -0.1183684
   0.2947303  -0.2643680  -0.1348933  -0.2834483   0.6780948   0.3167211
  -0.1035775   0.0880401  -0.0058824  -0.1527005   0.0610876  -0.6159482
  -0.2638461  -0.1512310  -0.0919147  -0.0839729  -0.0750119  -0.2691531
  -0.1558699  -0.2341291  -0.2996707   0.9607375   1.0393828   0.4751662
   0.1627575  -0.0086105   0.1556384   0.8564487  -0.0638683  -0.6408291
   0.1133151   0.1946357   0.1853023   0.0768539  -0.1031969  -0.2010961
   1.0801994   0.0926581   0.1271764   0.5934460   0.3315956  -0.5348738
  -0.1980613   0.0114273   0.0446771  -0.1213178   0.1501942  -0.1903710
   0.4347764   0.3660494   1.2378784   0.1367600  -0.2662245   0.1068338
   0.2167306  -0.1724859   1.0090993  -0.2162253  -0.2617434  -0.3676413
  -0.0788746  -0.0347573   0.0050179   0.6561370  -0.0786681  -0.2888027
   0.5057097   0.0081778   0.0834922   0.3054677  -0.1860772   0.0136993
   0.1406118  -0.1283341  -0.3657376  -0.9273681  -0.1625464   0.2424421
   0.0161598  -0.1670285   0.0694498   1.1798669  -0.5188521  -0.5238003
   0.2012679   0.0674157  -0.1284428   0.0160212  -0.1667134  -0.1544845
  -0.1827999  -0.3740532   0.0200300  -0.1600337   0.2736079  -0.0131476
  -0.0603667   0.1968282  -0.1784867  -0.0608105   0.1027652   0.3753893
  -0.5485760   0.1876412  -0.3693565  -0.1110035   0.2939331  -0.2282932
  -0.8753860   0.2350381   0.0383346  -0.1689764   0.6123424  -0.1418026
  -0.0567756  -0.1286800  -0.0886775   0.0838734  -0.1798490  -0.1043271
  -0.0866413  -0.2048809   0.0208744   0.0117458  -0.0166862  -0.1995989
  -0.7084215   0.3087100  -0.0584135  -0.8373592   0.7322547   0.2470197
   0.0821178   0.0541494  -0.3496559  -0.4541249   0.1340205   0.4116042
   0.0071622   0.1845581  -0.6656134  -0.1255402   0.1648115  -0.1290236
   0.5960021   0.0480895  -0.2653513  -0.8243848  -0.0821365   0.1087298
   0.4861816   0.1486375   0.0236228   0.7975785   0.2654094  -0.1462768
  -0.0441632   0.1565342   0.5552504   0.0892867   0.2129789   0.0162174
  -0.5679646   0.4218876   0.2156204  -0.1060780   0.6889755  -0.6312114
  -0.2292119  -0.2226384   0.1730500   0.7120975   1.1255950  -0.4314986
  -0.5946481   0.3268426   0.1260542   0.1297842   0.0392523  -0.1721185
   0.2608573  -0.4312444   0.5522331   0.1274432  -0.0088115  -0.6023193
   0.0074509   0.0288723  -0.1057156  -0.9199245  -1.5376203   0.5728847
   1.7969135  -0.5280524  -0.8219844   0.1062829  -0.0106806   0.0386797
   1.1175004  -0.1546271   0.9127891   0.6017182   0.3413260  -1.0159464
  -0.2512525   0.2919253  -0.3629318  -0.0838705  -0.0577863  -0.1734673
  -0.6865105  -0.0571822   0.3015934   0.1970022   0.0577045   0.3024775
   0.1766415  -0.1138898   1.2690908  -0.3660410  -0.7068813  -0.2406445
  -0.2462649   0.3578241  -0.2320837  -0.1050692  -1.1635687   0.9921275
  -0.6729530  -1.0717057   0.6089251   0.2854263   0.3195740   0.3194767
   0.6616899  -0.0486513   0.6993380   0.1572784   0.5101795   0.6203954
  -0.0230640   0.2910469  -0.5306567  -0.8187737   0.5721233  -0.7131816
   0.5660046   0.1922000  -0.4787216  -0.1869802   0.1104184  -0.1971339
  -0.0357562  -0.8510371   0.1719894  -0.2355928   0.5939579  -0.3292601
  -0.0446772  -0.3702672  -0.2319372   1.0655320   0.4118420  -0.6223203
  -0.7748565  -0.5459275   0.1452311   0.2994651   0.0130150  -0.1758105
   0.0982716   0.1088290  -0.0631206   0.1098452   0.6423502   0.0371852
  -0.1251563  -0.0255928  -0.3120956  -0.3424380  -1.3314762  -0.8792478
   0.8562750   0.0557262   0.9934585  -0.2766251   0.0204465  -0.0289808
   0.1442648  -0.6510777  -0.2529891  -0.0843708   0.2626624   1.2142772
  -0.0202856  -0.1890410  -0.1047002  -0.4113173   1.0714488   1.6152818
  -0.4912289  -0.7361080  -0.6140099   0.1250485  -0.0576808   0.2269940
  -0.1466479  -0.1107137   0.1551223   0.1312487  -0.4334553   0.0182907
   0.0198456  -0.1131749  -0.2641602   0.0741293  -0.1142970   0.1001973
  -0.0166870  -0.1815312  -0.1408783  -0.0813094   0.1157313   0.0134262
   0.2577983  -0.2025138   0.6800065  -0.2775137   0.3945555  -1.0162344
  -0.1243520   0.1901062  -0.2216731  -1.1446821  -0.5824986   0.5738184
   0.1118732   0.2049532  -0.8715154  -0.1671206  -0.0358333   0.1551185
  -0.8243306  -0.0767641   0.3832533   0.2256930   0.0071867   0.0550586
  -0.0115962  -0.2049553  -0.0156883  -0.2696917  -0.0044018  -0.3816079
   0.9657048   1.0039253  -0.3159472  -0.0386310   0.0470107  -0.0381542
  -0.2339797   0.0371009  -0.0128129   0.8061409   0.7758171   0.5897758
  -0.1103416  -0.1282122   0.0484136   0.3100705  -0.2358814  -0.4975755
  -0.2685083  -0.7668698   0.2773261  -0.1331452   0.2969382  -0.1293568
   0.1462305  -0.8943330  -0.4899838  -0.1761602   0.4292889   1.2152742
   0.0148915  -0.1080125  -0.0582042  -0.6484972   0.2209010   0.1021538
  -0.1700981  -0.6703101  -0.5080956   0.1834761   0.0824899  -0.3428268
  -0.8234080   0.5371443  -0.7176435   0.4827074   0.6433136   0.0541432
  -0.1899059  -0.1313260  -0.0422746  -0.7448907  -0.9029009  -0.6653991
  -0.3363834  -0.3700030  -0.2945697  -0.0461334  -0.4064658  -0.1789748
  -0.0284159  -0.4708132  -0.4559988   0.1587510  -0.7622290  -0.1686001
  -0.0104788  -0.0262955  -0.3841534   0.3094556  -0.3397795  -0.4177887
   0.8624082   0.4411808   0.1730641  -0.1508330   0.1663468  -0.0781250
  -0.6497208  -0.0738359  -0.3491395   0.0606337  -0.2984460   0.2529465
   0.3852257   0.3232872   0.3170498   0.3792839   0.0374486   1.0301663
   0.6773998  -0.9459150  -1.3958460   0.2264349   0.0697335   0.0977528
   0.4203621  -0.3051677   0.3640829   0.0919671   0.0274118   0.0956233
   0.0577045  -0.0270138  -0.1421659   0.7689909   0.4993060   0.9874388
   0.2050653   1.1622406  -0.2100717   0.2452485   0.0399037  -0.0012040
  -0.2012476   0.2350114  -0.6518353   0.5010186  -0.0878309   0.3064541
  -0.0114553  -0.2232127  -0.0543103  -0.4548589   0.2329142   0.4156164
   0.5020056  -0.4356688  -0.3605531  -0.0669475   0.1453576  -0.0405170
  -0.3903221   0.6241031   0.2128044  -0.0597926   0.5995747  -0.3872459
  -0.1273037  -0.0334227   0.0984732   1.2414515  -0.0691187   0.9198548
   0.0242286  -0.0355907   0.1956755   0.1874446  -0.0161125   0.4805221
   0.3405722   0.7555693  -1.2625404   0.1045829  -0.5939153  -0.3510789
  -0.2613230   0.1644581  -0.0923164  -0.3050028  -0.3296212   0.1361053
  -0.2367245   0.5625991  -0.2623865   0.2930279  -0.4797228  -0.0621711
   0.3140345  -0.4974780   0.0619228  -0.3178248  -0.0463691  -0.8863877
   0.0927983   0.3121406   0.0775665   0.0676324  -0.8252215  -1.0031879
   0.1324233  -0.3993671  -1.3847029  -0.0051452   0.1804293  -0.2677198
  -0.7845969  -0.0817516   0.2802784  -0.6485715   0.0217577   0.9970091
  -0.1530822   0.2056854   0.2208436   0.5032749  -0.0877656   0.1354927
   0.1985899  -0.0176796  -0.0361223   0.1313887   0.1025136  -0.1888295
   0.4493153   0.0156686   0.2652957  -0.4331755   0.4524008  -0.4581653
   0.0041068   0.1868554   0.0434878   0.1608638   0.0784670   0.1346011
   0.4876452   0.1238394  -0.0435446   0.1335687  -0.0013531  -0.1401345
   0.1839586  -0.8595891   0.5808789  -0.6537082  -0.2471702  -0.7943941
   0.3724139   0.0677345  -0.1419398  -0.5256978   1.0735397  -0.2694937
   1.4016529   0.0612604  -1.1433405  -0.0680270  -0.1875769   0.3062099
   0.7285058  -0.8781601   0.0030186   0.0953628  -0.7564594   0.1883131
   0.1539137  -0.3916521   0.2438438   0.1603913  -0.3240144   0.5111902
   0.0682730  -0.7008524  -0.3243727  -0.0073566   0.3971349  -0.1728031
   0.1251744   0.7015042   0.1542391  -0.2356838   0.6125475   0.3825546
  -0.0893152   0.2395340  -0.1656983  -0.4436786   0.9441151   0.6289875
   0.4184880  -0.4288642  -0.5722847   0.3143318   0.0067492  -0.2472394
  -0.4576442  -0.0860317  -0.6447831   0.4702270  -0.0265025  -1.1985205
  -0.0274475  -0.0199812   0.0217961  -0.0969796  -0.2119092   0.2560132
  -0.1482363  -0.2729042   0.4890754  -0.1714805  -0.0045931  -0.4718273
  -0.1290717  -0.0922275  -0.4288855  -0.3850334  -0.5105869   0.0616403
   0.3073499  -0.2312849   0.0298785  -0.1863492  -0.3861539  -0.2416742
   0.8206783  -0.7261682  -0.1079880  -0.1240922   0.1488242  -0.2823069
   0.7814587  -0.4578851   0.2601448  -0.4029137   1.0208021  -0.1955282
   0.0786556  -0.0195853   0.0146393   0.7742142  -1.0998740   1.1819019
   0.1122547   0.4511073  -0.1814472  -0.0750250   0.1011602  -0.1422117
  -0.1636048  -0.1599432  -0.1157119   0.2241090   0.3029431  -0.1617373
   0.1328299  -0.1181267   0.0827275  -0.6087576   0.6606231   0.0157075
   0.2999161  -0.0578452  -0.8260277   0.3959764   0.1258213  -0.1183494
   0.6738857   0.5585513  -0.3367938   0.2137385  -0.0120113  -0.3090358
  -0.0408020  -0.0297652   0.0011484   0.1307178   1.2071333  -0.6140963
   1.3268422   0.4021624   0.8462086  -0.2994156  -0.1551531  -0.2020482
   0.4215932   1.0485809  -1.3048030  -0.3368661   0.0685448   0.7751690
  -0.1068465   0.0281073   0.0965157  -0.0640654  -0.2511313   0.2363071
   0.1317518   0.1623902   0.1019420   0.2703039   0.0196746   0.1569874
   0.9135101   0.1667796   1.1570316  -0.2591787  -0.1129229  -0.6044949
   0.3687398   0.0186217  -0.2504635   0.1330529   0.5994655  -0.0346586
   0.5733823   0.7546904  -0.1067094  -0.0005670   0.0102674   0.3434713
  -0.1037931   0.5597193   0.0790396  -0.1307620   0.3379022  -0.4266560
   0.0855406  -0.0483717  -0.0464166   0.3127960  -0.1669454  -1.1102256
  -1.1576558  -1.2292056  -0.2238100  -0.1063455  -0.1562404   0.0600773
  -0.2957957  -0.0379786  -0.4228464   0.1879365  -0.6843853  -0.0034432
  -0.0642132   0.2349458   0.2222125   0.0204126   0.0568193   0.0156489
  -0.1594485   0.4414659  -0.0265416  -0.2454280  -0.1275354   0.0520000
  -0.1474101   0.1127263  -0.8967901  -0.9457745  -0.0563344   0.4597874
  -0.1308128   0.2378516   0.1264367  -0.3877382   0.0910746   0.3964742
   0.9937390   0.3533416  -0.4673680   0.2882431  -0.0814210   0.2107627
  -0.3741208  -1.1299148  -0.0425896   0.8350262  -0.1826167  -0.1152996
   0.0520391  -0.1946467   0.0608573   0.1313687   0.0536566  -0.5698722
   0.1960598  -0.5994723   0.3008717   0.1744987  -0.1460547   0.2157944
  -0.5399495  -0.3375662   1.1888861   0.6888996   0.8988217   0.2611542
   0.1505592   0.0698356  -0.0448858   0.4016875   0.4044026   0.3362296
   1.2180700  -0.4583678   0.8478726  -0.3975118  -0.1030810   0.2738063
  -0.0656931   0.2438361   0.4690239  -0.6352035   0.0402461  -0.1975545
   0.1062255  -0.0465021   0.2351833   1.0142912   0.6058227   0.0060712
  -0.7660759   0.5883322  -0.1632214   0.2426760   0.0803697  -0.1144506
   0.5065849  -0.3789294   0.7322528  -0.8438340   0.3096061   0.0125464
  -0.1774538  -0.1268169  -0.1253292   0.5225181  -0.2894328   0.3532966
   0.2293682  -0.2649768   0.1014604  -0.1552146   0.2160480   0.0323238
   0.2929326  -0.9689985   0.6318588  -0.0358591   1.2453697   1.1129949
  -0.0738650   0.1323125   0.0591435  -0.4529422   0.6795478   0.5189945
   0.0125144   0.9944736  -1.0603396   0.2339338  -0.2672288  -0.0252840
  -0.2048672   0.2690401  -0.6092522  -0.0015685   0.0263673  -0.2849450
   0.4269891  -0.2219069   0.2640712   0.1531121  -0.7937266   0.4689829
   0.0750202  -0.9139704   0.5039610  -0.1539810   0.1201191  -0.0945066
  -0.4174276   0.1880451   0.3658399  -0.4071616   0.4680865  -0.2773888
   0.2652626  -0.0263021  -0.0732123  -0.1047651   0.1233938   0.1883481
   0.2431827   0.0855368   0.2927179  -0.0605425  -0.0536872  -0.1533561
  -0.8988836   0.0637504   0.1220032  -0.0637497   0.4552923  -0.3540675
  -0.0264098   0.1627146  -0.0874630   0.1262344  -0.2451389   0.2805856
   0.0299874   0.3786121   0.1951314   0.0496790  -0.1595542   0.0035950
  -0.3928716  -0.5164479   0.0899518  -0.3991304   0.4835293   0.0699643
   0.2566880   0.0831139  -0.1238435   0.5112836   1.0727406  -0.2107407
  -0.1966729   0.1947874   0.4047154  -0.2766784  -0.1050916   0.2558421
  -0.2354121  -0.0540281  -0.1707761   0.5335303  -0.2826293  -1.6324777
  -0.1445825   0.0205347   0.0894533  -0.2152578   0.2909602  -0.2989979
  -0.0861589  -0.5010702   0.4746914   0.2473672   0.1410983   0.1842416
  -0.2176931   0.0761951  -0.2249793  -0.5524487   0.3519466   0.3116255
  -0.0137558  -0.0961602   0.1865240  -0.4586468  -0.0015526   0.0572515
   0.1303819   0.3999003  -0.0835425   0.0596101  -0.0306852   0.3929641
  -0.8895829   0.8478851   0.4428439  -0.2279541   0.3071877   0.1574024
  -0.0698288  -0.2990598   0.0249106  -0.3499448  -0.4025777  -1.1452707
  -0.1978353   0.3534005  -0.3536540   0.1398927   0.0572665  -0.0635704
   0.0280257  -0.1271562  -0.0220964   0.3394479   0.3793146  -0.1381702
   0.1188245   0.0272202  -0.0926383   0.0210258   0.1354222  -0.0435035
   0.3128635  -0.2265237  -0.2550558  -0.1131366  -0.1582246   0.1251700
  -1.0901497   0.4026037   0.6076885   0.1873751  -0.8706055   0.6072624
   0.1657165  -0.2493040   0.0956572   0.3141918   0.1860749  -0.5560685
   0.1424515   0.1650560  -1.0674493   0.1341542   0.1065624  -0.2622549
  -0.2757838  -0.7584200  -0.1732984   0.6060141   0.6403532   0.0299159
  -0.1314743  -0.1464539   0.1119690  -0.1735487   1.0902406  -0.0223301
   0.6759443  -0.4746924  -0.5232697  -0.1329205   0.1297509  -0.2191011
  -0.9499078   0.2889498  -0.0961218   0.3101581   0.4916857   0.2217708
   0.0967778   0.1726327  -0.0685120   0.9243995   0.0981300   0.2977758
  -0.2866779   0.2335441  -0.1935746   0.1579113  -0.2241193   0.1697546
   1.0307371  -0.4209501   0.0593790  -0.1281595   0.0482968   0.4288127
  -0.0912269   0.1050461   0.2413104  -0.6315378   0.5408854  -0.2178804
   0.3711221   0.2735048   0.0326416   0.0476934   0.0942144  -0.0056516
   0.7549447  -0.8664626  -0.7110632   0.7338527  -0.1332756  -0.2919354
   0.1379088   0.0338165   0.0018898   0.1500228  -0.1413696  -0.1649397
   0.2696512   0.1967246   0.1663100  -0.1379303   0.5166683   0.2111359
  -0.7465886   0.2613119   0.1294291  -0.4571813   0.0499124   0.1186258
  -0.1469227   0.1363961   0.3280944  -0.4399538   0.0727077  -0.2760999
  -0.5468114   0.0030113  -0.3031429   0.1291261  -0.0184132   0.1002842
  -0.0562320  -0.6360113   0.3116061  -0.1462189   0.4604225  -0.1192103
  -0.1623161   0.1607816   0.1165106  -0.3311720   0.6091404   0.4611516
  -0.1700524  -0.1415655  -0.0252375   0.2390131  -0.0303446   0.1296231
   0.7600593   0.2436202   0.8896308   0.4748176   0.1881254  -0.1380964
  -0.1725792  -0.0272397  -0.0175304  -0.3539604  -0.1071262  -0.4629332
   0.2818521   0.5360710   0.2120200  -0.0117689  -0.0331213  -0.0359542
  -0.4093241  -0.8640667   0.5868527  -0.6672358  -0.2769180   0.4067524
  -0.2333836  -0.1247590   0.1035045  -0.0140073  -0.6208244  -0.1578104
   0.6291370  -0.5688279  -0.0527827   0.1442364   0.2342210   0.0624676
  -0.1359682  -1.0571667  -0.1857627  -0.1958592  -1.1534409   0.2881555
  -0.1688370   0.2397732  -0.1706443  -0.4065155   0.6142279  -0.0454845
  -0.6636721   1.0917786   0.1258862   0.0091118  -0.0392831  -0.1280281
  -0.3853266   0.3695169  -0.4817118  -0.4643193  -0.1586476  -0.7461914
  -0.0820201  -0.0861116  -0.3535932  -0.0948831   0.3702168  -0.5635390
   0.1191835  -0.2057306  -0.0439810  -0.0134158  -0.1462632  -0.2494515
  -0.9745442  -0.6554980   0.8903838   0.0147799  -0.5429263   0.4404760
   0.1694387   0.1252525  -0.0606346  -0.6122775   1.2946491   0.0307781
   0.4797697   0.3882456   0.9754085   0.0933162  -0.0958340   0.1575913
   0.1319690  -0.3230912  -0.2329599  -0.1156543  -0.3824349  -0.3289082
   0.1066469  -0.1739971   0.1915877   0.0219167  -0.6100654  -0.0984498
  -0.5300313   0.0378496   0.1878171  -0.0177495  -0.0129621   0.0043743
  -0.4710455   0.6679743   0.6514173  -0.0631020   0.0715510   0.2072875
   0.0263407   0.2093019   0.2424844   0.4387975   0.1381648   0.4407666
   0.1788182   0.6512433   0.5134682  -0.0025511  -0.0338341   0.1083436
  -0.0204857   0.3514356  -0.1922320   0.1150283  -0.0269411  -0.6067522
   0.0702103   0.0759277   0.1118960  -0.8054907  -0.0371425   0.2329811
   0.3424763   0.4742041   0.8334136   0.1745852  -0.0355202  -0.2829743
   0.5572657  -0.1005670   0.2710166   0.3402991   1.0511364  -0.2199934
   0.0912770   0.2631673   0.0251860  -0.5017678   0.8788444  -0.3186884
   0.6288107  -0.4187240   0.5943932   0.1134186   0.2220215   0.2310208
   0.4563801   0.1959194   0.5726882  -0.8730280   0.2925487   0.3063108
  -0.1002498  -0.0152113  -0.1474401   0.0433622   0.6827369   0.2669298
   0.8980732  -0.3555050   0.5727881  -0.0640297  -0.2403563   0.0177788
  -0.3171439  -0.2602851  -0.0611998   0.1011787  -0.7042342   0.3259710
  -0.0087819   0.0868352   0.0168526   0.9180440   0.2913160   0.1608347
  -1.0058409  -0.4502252  -0.5333860  -0.0416939   0.1896525  -0.3845265
  -0.7472993  -0.5349890  -0.4574784   0.7693691   1.0555907   0.0476435
  -0.3996790  -0.2128004   0.4919170  -0.3799393   0.5906418   0.2758531
  -0.8721999  -0.2958289   0.6329718  -0.1332667   0.0362433   0.2327531
   0.5322634  -0.0937146   0.6101560  -0.7047654   0.2527177   0.4010635
  -0.0831557   0.0213190  -0.2050597   0.5078564   0.7613926  -0.4118312
  -0.2375164  -1.0554585   1.3916894   0.0488590  -0.1532143   0.1002023
   0.2268703   0.4984797   0.5560989   0.1854248   0.2373758   0.5427944
  -0.1027954  -0.1811457  -0.4372839   0.2789944   0.0180061  -0.0742200
   0.4948436   0.0462752   0.1348038  -0.1475709  -0.1666471   0.2025877
  -0.5794920  -0.2940579   1.0389505  -0.3734767  -0.2318582   0.4862325
   0.0170715  -0.2044660   0.1773911   0.8133194  -0.6723086   0.6539227
   0.9027303  -0.7590215   0.7550254  -0.0542897  -0.1221929   0.0512563
   0.2642734  -0.9848214   0.1715492  -0.9296040  -0.1888438   0.1720797
  -0.1606191   0.1231569   0.0492831  -0.2782045  -0.0123448   0.8947230
   1.4641763   1.8206932   0.6166712   0.1714759   0.3057578   0.2647298
   0.5623565   0.1379946   0.5929105   0.2230170  -0.1164557   0.1869862
  -0.3746390  -0.1603451   0.1458285  -1.1331981  -0.8760727   0.6463402
  -0.5997658  -0.3225673   0.0279268   0.3014762   0.1325528  -0.0199989
   0.6897445  -0.2242047   0.4138948  -0.6037500   0.0256599  -0.0036306
   0.1839571  -0.0264597  -0.1038210   0.1690637  -0.1799685  -0.9294641
   0.8267700   0.4464827   1.0612847   0.1517905  -0.1796368  -0.0464413
   0.3904674   0.3280666  -0.1843466  -0.2238865   0.0706707   0.4340772
  -0.1438520   0.1865129  -0.0823027  -0.3301964  -0.0015181  -0.0256647
  -0.2803030   0.0625582  -0.0136132  -0.0945758  -0.1434677   0.0878028
  -1.2358230   0.2559592  -0.6564559   0.4020590  -1.1146321  -0.3036331
   0.0077942   0.1221722  -0.2807009  -0.9404079   0.5157592  -1.0484396
  -0.2055164   0.6745027   0.8599958   0.1721598  -0.1381344   0.0979652
  -0.4386392  -0.9071003  -0.3405272  -0.3153272  -0.4600278   0.2165062
  -0.2623322   0.0632849  -0.1241191   0.0319574   0.3716351   0.1824290
  -0.1563100   0.1150876  -0.0353651   0.0377991   0.1746293   0.2089497
   0.2788193  -0.1109325  -0.1858794   0.0467152  -0.0737477  -0.0696978
  -0.0208915  -0.1863236   0.1513450   0.2767909   0.2179310   0.0411783
  -0.5830881  -0.9546788  -0.2215276  -0.0878814  -0.1161690  -0.1124079
   0.4805286  -0.8286172  -0.1938072  -0.9695631   0.8534845   0.0288209
  -0.2596564   0.0747154  -0.0719338   0.2853646   0.7414972   1.2760222
   0.3884846   1.1038961   0.5855991  -0.1410480  -0.1391244   0.1723665
  -0.0432823  -0.1272831  -0.4975201  -0.2506160   0.0330432  -0.3453606
   0.1647595  -0.1046041  -0.3262342   0.2496337  -0.7664245   0.2167638
  -0.1260171   1.2683560  -0.0698318   0.0048833  -0.2200612   0.0258085
  -0.0271689  -0.2589860   0.2620066  -0.0115805  -0.2634838  -0.3336903
  -0.3569990  -0.1120496  -0.0301947  -0.1334740   0.6882450  -0.5000495
  -0.8751788   0.5800389  -0.4648092  -0.3708701   0.0235651   0.0716840
  -0.6355895   0.3271746  -0.3945951   0.2391196   1.2539948  -0.4435292
  -0.2010154   0.0135301   0.0567325  -0.1420401   0.0746222   0.1932477
  -0.5690581  -0.3777248  -0.7394888   0.2416611   0.2736660  -0.1324032
   0.5424294   0.1911129   0.3193400   0.2593185  -0.2642098  -0.4692656
   0.1434897   0.0867669  -0.0487365  -0.2135014   0.7546103   1.0944627
  -0.0942118   0.5908791   0.6017102  -0.0209088  -0.0180298   0.3535483
   0.2513048   0.5156222   0.2394786  -0.2378046  -0.3682900   0.3265583
   0.2094649   0.0276012   0.0519835   0.0724897   0.6147295  -1.4154828
   0.6681428   0.5975781  -0.8558973   0.1816601  -0.1893166   0.3019826
  -0.6300077   0.4444903   1.3964056  -0.3958821  -0.8587133  -0.0242362
  -0.0022871   0.2312665  -0.0796413   0.3174926   0.4155008  -0.8573697
   0.6589828   0.2185399   0.4024923   0.1876169   0.1584098  -0.0616061
   0.1734267   0.0999506  -0.0751618   0.2611267   0.6812747   0.6780058
   0.2772978   0.0817166   0.0215019  -0.5392737   0.8084501   0.6078538
  -0.3506270   0.5005103   0.0395821   0.4195904   0.1750051  -0.2561249
   0.7063273   0.1647626  -0.2790037   0.1670733  -0.0282211  -0.1312219
  -0.0400792   0.1185422  -0.2313657  -0.0162452   1.1061336  -0.3475173
  -0.2169352   0.2814509  -0.0386265   0.1368676   0.1691142  -0.0791852
   1.0510458  -0.7111874   0.3421978   0.4252785   0.3121373   0.0539204
  -0.0453945  -0.0294347  -0.2268376  -0.3844404   0.7407906   0.6602458
  -0.5839144  -0.4939738  -0.6219800   0.0298752   0.2013811  -0.0025139
  -0.4206185   0.1400319  -0.8619352   0.4929318   0.9616991  -0.4499466
   0.2297401  -0.0566024  -0.2491171  -0.1155786  -0.0775137   0.7101327
   0.5101430   0.1344465  -0.8570346  -0.1598321   0.3555205   0.0828979
   0.9692291  -0.3242675   1.4213039   1.1972636   0.5635650   0.3168873
  -0.1234500   0.3023432   0.1790625  -0.1826518   1.1703862  -0.7732935
   0.1392474   0.8310403  -0.3084240   0.1172424  -0.1923395  -0.0359548
  -0.1465598  -0.9931979  -0.1098278   1.0050926  -1.6543414   0.8411208
   0.2344406   0.2677246   0.0728349  -0.2898914   0.4010196   1.2591411
   0.3472256   0.2787522  -0.1596513   0.1756394  -0.0484240   0.0027620
  -0.2007958   0.1102124   1.6220044   1.6032015  -1.1979003  -0.1734545
  -0.0602465   0.1856056   0.3962696   0.2784929  -0.2405291   0.2798958
  -0.5097573   0.5167290   0.0496086  -0.1099507  -0.1768151   0.1854360
   0.2523222  -0.0330984   0.4038718  -1.1572861  -0.3103724   0.0468363
   0.1553483  -0.1403290  -0.0577009   0.0943719  -0.1884673   0.3247376
  -0.2674396   0.3409535  -0.3082193   0.1514521  -0.0029880   0.2214061
   0.2633632   0.3333647   0.0964146   0.1538330  -0.3976353   0.2048282
  -0.1128725  -0.1279098  -0.2404178  -0.2406488   0.2100417  -0.8887866
  -0.0509938  -0.9353161  -0.1321013   0.0233877  -0.0337966  -0.2217190
   0.5614610  -0.2287550  -0.1918122  -0.5946867  -0.3903298   0.4151648
   0.2067226  -0.2128129   0.1338594  -0.9880329  -1.0113693   0.2517159
   0.5459899   0.0467543  -0.1835524   0.2359488  -0.2335542  -0.2293012
   0.4414946  -0.4677015  -0.1568448  -0.6128705  -0.8814599   0.6387936
   0.2970184  -0.0990705   0.1748298   0.1644790   0.9229780   1.1340894
  -0.1544577   0.4494627   0.9043443   0.1146893   0.2828841   0.1160787
   0.5955036   0.2610337  -0.0612951  -0.1226305   1.0405750  -0.2206598
  -0.3120506  -0.1156634   0.1254399   0.3156723  -0.8555538   0.1599648
  -1.0619452  -0.2142849  -1.1762721   0.0202512  -0.2924505   0.3771375
   0.2670572  -1.2291956   0.6561784  -0.0047204  -0.5679197  -0.3519536
  -0.0698833   0.0322528  -0.1860832   0.3512059   0.1359780   0.3368219
   0.6286809   0.7076858   1.0422857  -0.1472991  -0.2476817  -0.3965472
  -0.0955431  -0.6245855  -0.3804019   0.0836850  -0.3459709  -0.6964434
   0.1551244   0.1784751  -0.2800859   0.1729673  -0.6251932   0.1678747
  -0.2681520  -0.2269504   0.0039390  -0.0030966  -0.0914478   0.0385514
   0.2276602  -0.7804857   0.4463052  -0.3044919  -0.4268745  -0.2148637
   0.1263286   0.1172023   0.0239535   0.7654858  -0.2820825  -0.2040610
   0.2625085  -0.3916231  -0.4138093  -0.1462709   0.1574898   0.2167153
  -0.2384102  -0.2270764  -0.1337972   0.0487261  -0.0230463   0.7228986
   0.2220038   0.0353814  -0.0199861   0.3735504  -0.5928377  -0.3598612
   0.5982270   0.6267444  -0.7499828  -0.2055349  -0.0223802   0.2683313
   0.5162288  -0.3659172   0.3988522  -0.2928116   0.5464795   0.8779821
  -0.1908766  -0.2343950   0.2735096  -0.4715366  -0.6844744   1.5081867
   0.5154392  -1.0668262  -0.1094232  -0.0052936   0.0907113  -0.1801355
   0.1014134   0.8562675   0.2720478   0.3261410   1.2287958   0.4409612
   0.1693766   0.0233433  -0.0174169   0.1528781   0.7005989  -0.9198078
   0.1875792  -0.7230065   0.0340856   0.0049944  -0.5643133  -0.0431945
   0.0438495  -1.6718376   0.1106444  -0.7049821   0.4862157   0.3829115
  -0.1654006  -0.1330125  -0.0641883   0.2641442   1.0369523  -0.4077366
  -0.5222633  -0.3549344   0.1508692  -0.0605574  -0.1762298  -0.0905016
  -0.1804780  -0.4186351  -0.0572079  -0.1862480  -0.7265271   0.3330094
   0.0927979  -0.3497410   0.1008499  -0.1646368   0.0710960   1.2920441
   0.0583189  -0.6581501  -0.3834187   0.0170570   0.1654723  -0.1964541
  -0.0867808   0.1387964   0.2168826   0.6018559  -0.1023800   0.6633301
   0.0381159   0.2136491   0.2393897  -0.9656288  -0.3914998   0.7988166
  -0.0548880  -0.3907202   0.1651909  -0.0368722  -0.4733025  -0.3887073
   0.8937285  -0.0779292   0.1067885  -0.8379286  -0.7522663  -0.8357704
  -0.0804555   0.4156417   0.0649579   0.2282499  -0.8274535   0.6980745
   0.3692398  -0.3246903   0.9610252   0.2313836   0.2586369   0.1527171
   0.2173581   0.8807273   0.2594371   0.6986540   0.4966357  -0.5540913
  -0.1261934   0.2919313  -0.2615123  -1.0949098  -0.9657634  -0.7141249
  -0.3220394   0.1904329   1.3502909   0.2974768  -0.4159831  -0.1020197
   1.5393150   0.2687728   0.6087250  -0.5776236   0.8124165  -0.5927545
   0.1443424   0.0596095   0.0378163   0.1810737  -0.5825359   0.2579237
   0.1207517   0.0880755   0.0279649  -0.2053313   0.2050343   0.1439488
  -0.2208209   0.3897152   0.5262694  -0.0415667   0.2972132  -0.2143548
   0.3754650  -0.0129770  -0.1162036  -0.4342397  -0.0508608   0.0690880
   0.3492679  -0.3452035  -0.3932848   0.2218134  -0.1454152   0.1593601
   1.1006046   0.1374193   0.8294342  -0.0040189   0.8818723  -0.6232959
  -0.2707494  -0.0011234   0.0881609  -0.0476691   1.0381257   0.2968926
  -0.3938114  -1.3199922  -0.5009176   0.1952629  -0.2193104  -0.1679183
   1.5536336   0.9291124  -0.5327747  -0.5915249  -0.8560328   0.2564790
   0.0218067  -0.1819186   0.1391752   1.4032410   0.0860056   0.2096524
  -0.5522331   0.1484341  -0.0819728  -0.1946343   0.3410443   0.1332653
  -0.2576466   0.7498051  -0.5188725   0.3599296  -0.1206171   0.0818629
  -0.0388779   0.0602074  -0.0127083  -0.4188169  -0.3424399   0.2314007
   0.1961719   0.3096472  -0.1637942   0.1517282  -0.0290512   0.2414154
  -0.8399146  -0.4993719  -0.9023858   0.2067571   0.2943907   1.1824703
  -0.0550334   0.1392089  -0.0101490   0.2460004  -0.4838453  -0.0857296
   0.5778096   1.1362416  -1.0762980   0.2511177   0.1817367  -0.3157385
   0.4553083   0.3060433  -0.3829049  -0.0925057   0.6824414  -0.6407133
  -0.1228080   0.0072238   0.3291840   0.5550960  -0.8632534  -0.9977007
  -0.2587601   0.5774709   0.4128170  -0.2409148  -0.0905603  -0.0538169
  -0.4026371   0.7118387  -0.0291459   0.2699442   0.1925814  -0.4034327
   0.0698063   0.0334945  -0.0830748   0.0172632  -0.1537731  -0.9124994
   0.6308061  -0.2994154  -1.9477101  -0.2517359  -0.2042154  -0.2326626
   0.8921994  -0.1062719  -0.7100329   0.2687524  -0.2801303  -0.2553911
   0.1228266  -0.1960490   0.1751992  -0.0431654  -0.3034031   0.0897673
  -0.2278406  -0.0034315   0.3040461   0.0976873  -0.2273395   0.0093946
  -0.0796482  -0.2348153  -0.3838211  -0.2349387   0.0418781  -0.7947505
   0.1816943   0.2618900  -0.0156589   0.5820317   1.1473870   0.5654505
  -1.0709740  -1.4871858  -1.1742441  -0.0535620  -0.1048497   0.1882057
   0.3945332  -0.1172153  -0.3200051  -0.3657330  -0.1803222   0.4222204
  -0.2966580  -0.0660858  -0.0637290   0.7097120   0.3553509  -0.4335611
  -1.0292138   0.4854837  -0.5049867  -0.1780898  -0.1276633   0.0329834
   1.1838880  -1.5333478  -1.2139841  -0.1566668  -0.0817991   0.8342457
   0.0210196   0.0485849   0.1129291   0.0183620   0.0824464  -0.1766964
  -0.1036323  -0.2280003  -0.4558182   0.0874678   0.0045838  -0.1019736
  -0.7247978  -0.1422867  -0.1939384  -0.0413264  -0.1757111   0.7556456
   0.0827061  -0.0157167   0.0673536   0.9128950  -0.6445686  -0.6404815
   0.0672171  -0.4700505  -0.7816319  -0.3724009   0.2124708   0.1445473
  -0.5981472   0.9676868  -0.7934593   0.2461812   0.0454021  -0.3354477
  -0.1257085   0.1780030  -0.0311564  -0.1695181   0.0488042  -0.0096820
  -0.1907781   0.2043489   0.3480702   0.0615098  -0.1579158  -0.1329640
   0.5841079   0.3016060  -0.4249434   0.4018357  -0.0040964   0.4664513
  -0.2407644  -0.2165163   0.0389881  -1.6936546   0.1698612  -0.7868840
  -0.6954556   0.0007197  -0.3138459  -0.1820161   0.1497788   0.0841494
  -0.1348773   0.1233606   0.0482711  -0.3479441   0.6866296   0.2662794
  -0.1994230   0.3784218  -0.0592361  -0.1795317   0.6353577  -0.0061738
  -0.3163782  -0.7688344  -0.1570535   0.0865860   0.0167563  -0.3300039
  -0.8871195   1.8175316  -0.5632937  -1.1425297  -1.0347921  -0.3197785
  -0.2835590   0.0359124   0.0749487  -0.2433388  -0.1552483  -0.2502935
   0.2330399   0.0518566   0.2961471   0.0479974   0.0488644  -0.3310071
  -0.4769846   0.3915112  -0.2035787   0.6654889   0.4221703  -0.6020702
   0.2636196   0.1357681   0.1962730  -1.0677485  -0.8596410   1.0600950
   0.0058210  -0.9252080   0.2089248  -0.3872380   0.0249815   0.0164661
  -0.0655259   0.2554826  -0.8765118  -1.5594722  -0.4832823  -1.4483523
  -0.2135021  -0.0059590  -0.0716491   1.4780814   0.0090729  -0.5500070
   0.1548522   0.6287420  -0.4038602   0.0201075  -0.1842298   0.3157286
  -0.3047860  -1.2119140   0.7647229  -0.5347563   0.3376544   0.5577366
  -0.0653025   0.1018032  -0.0522942  -0.1772978  -0.2305024  -1.0527642
   0.0671650  -0.4160639  -0.3522780   0.0821445  -0.0854280   0.0023356
  -1.3732957  -0.2583017   0.2462233  -1.1670272   0.0599982   0.2453059
   0.0904105  -0.0578000  -0.2199326  -0.1273305   0.4764150   1.1156886
   1.1819211   0.9204049  -0.8357691  -0.1373611  -0.1533045   0.2683239
  -0.4607508   1.2923093  -1.4870670  -0.1242229  -0.5486072   0.2524124
  -0.0189923  -0.0029960  -0.1740248  -0.8536219  -0.8142138   0.3790741
  -0.1215115   0.2707013   0.7313275   0.0574601   0.1008953  -0.0630398
   0.0107123  -0.6483904  -1.0831003  -0.7855545   1.9041222   0.1268490
   0.4170863   0.3847952  -0.1599592   0.6484254   0.1668046   0.0563718
  -0.5634552   1.0244842  -0.8266180   0.2261327   0.2374103   0.1070270
  -0.3664127  -0.2176528   0.5479662   0.3337377   0.3527202   0.0652179
   0.0559872  -0.1657178  -0.0065849   0.0616018  -0.1792376  -0.0003394
  -0.0732359   0.6133297  -0.7899145   0.0526650  -0.0368161  -0.0861689
   0.0186602  -0.2257544   0.1856918   0.4059331   0.0365412   0.0155766
  -0.0212578   0.1289478   0.2200814  -0.1366901   0.6040075   0.0117950
  -0.2133262  -0.0473626   0.3024740   0.0312407  -0.1413878   0.2428074
   0.9931434   0.8739294  -0.0678640   0.3734107  -0.4282700   0.6225405
  -0.2208004   0.0204266   0.4086069   0.0603288  -2.0011640   0.6761509
  -0.0269989  -0.9741069   0.1213771  -0.0585574   0.3029072   0.0978472
   0.5232110   0.3500624  -0.2722195   1.5415956  -0.6313651  -0.1274258
  -0.0361327   0.1550666   0.2516438   0.7004169   0.6399965   0.0407484
   0.3075781   0.1709361  -0.4318357   0.0895304  -0.1603062  -0.3939119
   0.2693296   0.3856034  -1.0274127   0.1454542   0.4584349  -1.6109009
   0.0393527   0.1239669  -0.1429801   0.7482670   0.1473728   0.0784812
   0.1219572   0.4534593  -0.0676687   0.2763973   0.3599082   0.0548121
   0.3424364   0.1584288   0.2980967   0.4462012   0.6099960   0.1122979
   0.1494457   0.2194139   0.0420643  -0.0449690   0.8368807  -0.1314700
   0.7053896   0.3722189   1.1214029   0.3804044  -0.1733420  -0.3932994
   0.3733321  -0.6558264  -1.0098147   1.1971527  -0.8517266  -0.9613810
  -0.0342288   0.0469035  -0.2818612  -0.2458456  -0.0632652  -0.2818300
  -0.2445243   0.6443326  -0.0997946   0.3410693  -0.0323200  -0.0147027
  -0.1636820   0.0119530  -0.2600333   0.3456994   0.4888857   0.0510384
  -0.1120698   0.3130291   0.0968805  -0.3567631   0.3813419   0.2636556
  -0.1367635   0.4216123   0.1646028  -0.1373456  -0.1185521   0.0071762
  -0.4791283   0.7165879   0.3043289  -0.4553262   0.6671561   0.1563383
  -0.0378544   0.0396157  -0.0909603   0.0768835   0.1091272  -0.1600919
   0.3170722   0.1062231  -0.2187332   0.3356779   0.3091294   0.4280979
   0.4671753   0.2011958   0.4302691   0.0529774   0.6913894   0.3825396
   0.2354690   0.0633911  -0.0282751  -0.4788743   0.8212964   0.3788954
  -0.1139973   0.4485611   0.1872454   0.0454732   0.1268117   0.0627294
  -0.0221238  -0.0856515   0.1252013   0.0952941   0.7625267  -0.0844076
   0.1134772   0.0329323   0.2579927  -0.4324832  -1.3531187  -0.8734999
   0.0518865   0.2399466   0.9250862   0.1215132  -0.2919201  -0.2188242
   0.7904286  -0.0425466   0.1801530   0.8429252  -0.1164280   0.1131043
  -0.1038029  -0.1993488  -0.2080768   0.3977584  -0.6073867  -1.0904836
  -0.4270161   0.0624113   0.3265917  -0.2368650  -0.1259172  -0.4270582
   0.6281893  -0.0961023   0.4844691   0.5227932  -0.5359618  -0.3713142
   0.1911915  -0.0649252  -0.0525100   0.2719648  -0.1187402  -0.2950452
  -0.2431972   0.1915759  -0.3656205   0.0451684  -0.0366888   0.2628090
  -0.6166879   1.0287028   0.6883738  -0.7976176   0.5078153   0.6670535
  -0.1500593  -0.1160784  -0.0514053  -0.5616666   0.5792005   0.2758555
  -0.7032689   0.6782646  -0.2049731  -0.1958181  -0.0164731  -0.0861846
  -0.5470417   0.4874875  -0.0500804   0.2739862  -0.0219646   1.1611125
   0.2539888  -0.0305863  -0.0539916  -0.4575792   0.2253550  -0.1027233
   0.1389199   0.7407240   0.3964165   0.0008239  -0.2219700   0.2336709
   0.2376093   0.0879169  -0.2902337  -0.3118358  -0.0954480  -0.0959596
   0.0581885   0.0092450  -0.2455895   0.7575266   1.2453194   0.6582225
   0.1843163  -0.5932495  -0.0754724   0.0814071  -0.0145212   0.2891610
   1.0421280  -0.6092849  -0.3572503   0.8624706  -1.0135717   0.3622862
   0.0596738  -0.2590253   0.4140215  -0.0853436  -0.9243692   0.4541709
  -0.3028513  -0.0203733  -0.1259638  -0.1801108  -0.1513040  -0.0058800
   0.0496777  -0.3313012   0.2421800  -0.1966220  -0.2380281  -0.3253478
  -0.0430585  -0.0228685   0.2095980  -0.0379319   0.1025932   0.1116040
  -0.1325019  -0.0437108   0.3169750  -0.1181169  -0.0778232   0.2207200
   0.7221129  -0.6535874  -0.5729480  -0.7537184   0.7460676  -0.5271860
  -0.0162318  -0.2662620   0.3250874  -0.3493437   0.6078885  -0.5053903
  -1.0900007  -0.8548707   0.6035340  -0.0603181  -0.0417403   0.2100602
  -0.0643928  -0.2267997   0.6817929   0.3355413  -0.1179255  -0.2480117
  -0.1857126   0.1091953  -0.3913068  -1.2985534   1.0663965   0.1462263
  -0.8483385  -0.8112454   0.9635590   0.3553449  -0.1095621   0.3893097
   0.1313115   0.8913318  -0.5040585  -0.3060915  -0.4105680   0.4099350
   0.0693684   0.1360326  -0.0285003  -0.1673751  -0.6900547   0.3314613
   0.1382880   0.9346042  -0.1537049   0.0179029  -0.2751647   0.0564505
  -0.0953396  -0.9310467   0.2319461  -0.6533233  -0.0192293  -0.0773262
  -0.3614767  -0.1078837   0.1888916   0.6013323  -0.3288800   0.4053129
  -0.6946055   0.0047830   0.1136899  -0.2680198  -0.0206305   0.0545188
  -0.2474890  -0.0295460   0.0483260  -0.1497278  -0.0514711   0.0403371
  -0.0730058  -0.0456949  -0.3375392  -1.1188169  -0.1084958  -0.7058315
   1.4697929   0.0081547   0.2119969  -0.1102358  -0.0504609  -0.1330091
  -0.3105109  -0.3697587  -0.4818746  -0.5193001  -0.1158709   0.1819180
   0.0373027  -0.2780922  -0.1661138  -0.3406186   0.1824040   0.1568849
  -0.3065078  -0.1994069   0.4459539  -0.1703394   0.1004801  -0.1017825
   0.0700100  -0.3481993  -1.1228649   0.2436509  -0.0448406  -0.3263662
  -0.2588756  -0.0259828   0.1173440  -1.3508889   0.1082844   0.1580401
  -0.1785510  -1.1013093   0.5285595  -0.1193675  -0.0874088  -0.0340377
  -0.2428842  -0.3179719   0.3733198   0.3269465  -0.0348096  -0.5253036
   0.1140420   0.3996829  -0.0260221   0.4641671   0.2607402  -0.0436081
  -0.7338689   0.6495757   0.0770888  -0.1383783  -0.1408486  -0.2098468
  -0.1181032  -0.1754382   0.4357820  -0.3153358   0.4840348  -0.5005078
   0.0050674   0.0477400  -0.0716419  -0.1115924   0.5262637   0.2158000
  -0.0250634   0.4390590   0.2477576   0.1226382  -0.0323919   0.0150952
  -1.5198146  -0.4884769  -0.2929875   0.1747276  -0.5233823  -0.5206553
   0.1702360   0.0201478   0.1298208   0.1535486   0.5387853   0.5758026
   0.3494378   0.1191473  -0.0749585   0.2565474   0.1259707   0.2924959
  -0.0546011  -0.2387974  -0.6079028  -0.1183309  -1.1656538   0.4436319
  -0.0164034  -0.0841450   0.0041200   0.4036897   0.5684371  -0.1060973
   0.3401820  -0.1034672  -0.0681379   0.4535415  -0.0922978  -0.0662019
   0.4014588  -0.7469868  -0.3907864   1.1473123   0.0117224  -0.6536638
  -0.1283584  -0.0677407  -0.0457150   0.6163143   0.4625186   0.1015604
  -0.7691862  -0.1538650  -0.9943523  -0.1589358  -0.2201449   0.0228087
  -0.0519141  -0.3129632   0.3940648  -0.3693440  -0.5887392   0.5313912
   0.0113669  -0.1856441   0.2507838   0.3894671   0.2348139   0.9912630
  -0.3563535  -0.4554494  -0.3338166  -0.0756017   0.2771650  -0.0710064
  -0.0290096   0.4067292   0.0614236  -0.3739185  -0.0213322   0.2123586
  -0.0002873  -0.0069249  -0.0803190  -0.0339298  -0.9586956  -0.5488726
   0.5507897   0.2133531   0.4587720   0.0297626  -0.0277715   0.0163937
   0.0631913  -0.1011838  -0.1118282  -0.3035726   0.6220293   1.1143089
   0.2095384  -0.0273603  -0.1736012   0.3510779  -0.1146191   0.0665507
   0.1859378   0.1610720  -0.0778989  -0.3987242  -0.2294395   0.3198583
  -0.1870715   0.4215973   0.5011719  -0.4764214  -0.2790300   1.3033761
  -0.0525114   0.1215900  -0.0014319  -0.6554536   0.3946877  -0.1355437
   0.2171245   0.0814746   0.4104154   0.2342901  -0.0984084  -0.1307008
   0.1116134  -0.6951765   0.2902859   0.0348812  -0.5940459  -0.2053186
  -0.1090948  -0.2143400   0.0578070  -0.0438159   0.0023446   0.2300287
   0.0070618  -0.6116273   0.5240683  -0.3618752   0.2183045  -0.1128533
   0.3956463   0.6965048   0.7522247  -0.1485610   0.7861109  -0.4260129
   0.0226368   0.0117398   0.0851619  -0.6678593   0.5641660   0.4440646
   0.0422904  -0.0237991   0.2342723  -0.3329580  -0.2612970   0.0462538
  -0.3917475  -0.1558776   0.3829251  -0.3271532  -0.2334680  -0.2853921
   0.0720637  -0.0531929   0.0184017  -0.6936201  -0.8753514   0.0508428
   0.1708215  -0.0505227  -0.1324759   0.4091183   0.0897751  -0.0284826
   0.3392587  -0.1425216   1.4067601   0.3741818  -0.0243857   0.6798096
  -0.0082948  -0.0546739  -0.0597338   0.1868860  -0.1601981  -0.2841515
  -0.1374621   0.0449572  -0.2227012  -0.1228859   0.1173860  -0.5127318
  -0.1901187   0.2773088  -0.7332207  -0.0443814  -1.1228743  -1.4112340
   0.2928956  -0.1041333  -0.3928713   0.3770230   0.6897496   0.3780858
   0.0067292  -0.2025972   0.0239616  -0.0874115  -0.3026908   0.0059832
  -0.1589744  -0.1152025  -0.2819887   0.2131723  -0.0651580  -0.6200565
  -0.2047588  -0.1536741   0.1622925  -0.3846536  -0.0684150   0.5105673
   0.1809576  -0.9241314  -0.1404821  -0.0655354  -0.0357268  -0.3178817
  -0.0565321  -1.2228724   0.1713318  -0.1889900  -0.0147177  -0.2758547
  -0.1624153  -0.1395147   0.2031010   0.0790984  -0.3541360  -0.3112521
   0.4845257   0.1663662   0.7574126  -0.0858100   0.5250013   0.0364762
  -0.5175126   0.3458993   1.1491444  -0.1073860   0.3945107   0.0543773
   0.2168820   0.0954331  -0.0402452  -0.3138097  -0.8065124   0.6473971
  -0.2097921  -0.1569553   0.8104724   0.0390887  -0.5316186   0.2405359
  -0.0290423  -0.5897015   0.8440011  -0.7692473  -0.4684541  -0.6559172
   0.0719779   0.1300401   0.2208357   0.4726825  -0.3965349   0.6089974
   0.2887938  -0.0351580   0.5110530  -0.1133807  -0.1941771   0.1364517
   1.5665869   0.0834066   0.9008680   0.5655099   0.8457747  -0.8112964
   0.4937100   0.1323300  -0.1091222   1.1441921   0.1555959   0.5761306
   0.1285341   0.3309712  -0.4419721   0.0467822   0.1442907  -0.1229680
   0.3696617   0.7477636  -0.3390731  -0.5847310   0.1323610  -0.4862443
   0.4081240   0.2125991  -0.1867735   0.0826829  -0.1045403  -0.0131721
   0.8144321   0.4850449  -0.1043260   0.2311313  -0.1715080  -0.1321924
  -0.2594046  -0.4086339   0.8446592  -0.0035990   1.0628470   1.0046159
   0.1150385  -0.0909928  -0.0155979  -0.0810127  -0.4564059   0.5105061
  -0.1695765   0.9220514  -0.1611418  -0.3680668   0.0662431  -0.0888230
   0.0761712   0.7103078  -0.0974160  -0.2270659  -0.2371910   0.3682671
   0.0406206   0.0310228   0.1705116   0.5507694   0.0400417   0.4426723
   0.4410565   0.2231482   0.2152687   0.1350632  -0.2862659   0.0714989
  -0.1980232  -0.8060967   0.6490408   0.1306508   0.4469422   0.0882225
  -0.2486569   0.0006753  -0.0977113  -0.5526911   0.3210004   0.0991199
  -0.1989528   0.0336803   0.0235557   0.3533435  -0.0148561  -0.0727438
   0.6035859   0.5766143   0.1970255  -0.0887672   0.3695994  -1.0866545
  -0.2606333   0.3399912   0.1251763  -0.7476894  -0.1455305   0.3427581
   0.2046805   0.5752055   0.4871024  -0.1510862  -0.0352042   0.1040726
  -0.3018398  -0.3398365   0.2746521  -0.0947781  -0.0731305  -0.3062430
   0.3704160   0.1099577  -0.2395571   0.3565587  -0.1013446  -0.2550467
   0.3856032   0.6356591  -0.1620698   0.1186336  -0.2535271   0.1630887
   1.1856284  -0.2730181  -0.1482331  -0.4455568  -0.1953863   0.6366033
   0.1051937  -0.1328668   0.2124110   0.3881677  -0.0822977   0.0926217
   0.5724597  -0.4684049   0.8202627  -0.0223891  -0.1179115  -0.0788529
   0.3834166  -0.0878718   0.2062519   0.6318406  -0.4214514  -0.3365444
   0.0527143  -0.1181929  -0.0215061   0.0141889   0.0690008   0.3545866
   0.7069834   0.0203872   0.9646485   0.0451500   0.5048065   0.1541475
   0.3985439   0.1100401  -0.6173804   0.2643549   0.0730084  -0.1647548
   0.1059673   0.0326099  -0.2602145   0.2465071  -0.1480189  -0.3979673
   0.0271253   0.2165820   0.1741565  -0.1801544  -0.1361179   0.1779421
  -0.1823249  -0.3576996   0.5268053  -0.0570878  -0.0498755   0.1821197
  -0.0083828   0.0316659  -0.0608292   0.0901124   0.3324018  -0.1221656
   0.1395099   0.1226858  -1.3076853  -0.1035916   0.1619320  -0.2817583
   0.6415380   0.4146243  -0.4004695  -0.4006511  -0.0037796   0.8681687
   0.0236070  -0.0394001  -0.1140103   0.2187581   1.1114546  -0.4047989
   0.0057647   0.1536587   0.1805468  -0.2462766  -0.0541506   0.0787782
  -0.2451254  -0.1194967  -0.3349750  -0.2389164  -0.0627484   0.0195407
   0.0404078   0.0489910   0.0191387  -0.1929520   0.4045008   0.1226937
  -1.3432204   0.7383024  -0.3361970   0.1991997   0.0587782  -0.1912696
   0.4200235  -0.1696947   0.1036224  -0.0717249  -1.0434176  -0.9218088
   0.1098661   0.0915521  -0.0488777   1.5103509   0.3188338  -0.0897077
  -0.1474120   0.7125033  -0.3556027  -0.0595359   0.1376839   0.3789819
   0.0505313   0.4918424   0.8821556  -0.8315503  -0.0864691  -0.2227171
   0.0374668   0.1347139   0.1774060  -0.7651901   0.0231068  -0.3168681
   0.3341347   0.0542253   0.2779404  -0.0389220   0.2973504  -0.2116699
  -0.3817275   0.2701738   0.0965536   0.3664401  -0.8635257  -0.5345789
   0.1826251  -0.2595565   0.3656838   0.2321369  -0.3463309   0.4104436
   0.2032463  -1.3099815   0.3333042   0.0234246  -0.1662246  -0.1714305
  -0.6665585  -1.0524496   0.8097224  -0.2398126  -0.0995228  -0.0700475
   0.1605879  -0.1010847   0.1588815   0.1849607   0.5320656  -0.1560740
   0.1181611   0.1641111   0.7890406   0.1386075   0.1692561   0.0894189
  -0.2746215  -0.3943218  -0.6656581  -0.1855262  -0.7115780   0.1938698
  -0.1262022  -0.0726619   0.0685346  -0.3104822  -0.0183268  -0.2027183
  -0.3395675  -0.2069970   0.2889654  -0.1528026   0.0320002  -0.1230808
  -0.2633835  -0.1911823  -0.5989207  -0.0804375  -0.3046968  -0.0581557
  -0.0159415   0.1098779   0.0511644  -0.3598868   0.3523060   0.0352932
   0.3504369   0.3025016   0.0447444   0.0930293   0.1632391  -0.0694163
   0.0850402   0.5576596  -0.3413387   0.5458410   0.1809061  -0.0578039
  -0.1934673  -0.0014628  -0.3144671  -0.1449858  -0.6636420  -0.1929034
   0.0477723  -1.3026678  -0.0166152   0.2275493  -0.3550274   0.1797718
  -0.2604901  -0.3005252  -0.5701468  -0.9070514  -0.2145028   0.1913623
   0.3540922  -0.0280753   0.1795807  -0.3139968  -0.0762211   0.0786573
   0.6311196   0.0638106   0.3315531   0.2926775   0.3873055   0.1129652
   0.1533649   0.1697349  -0.8263534   0.0779889  -0.0772315  -0.7723718
  -0.2244516   0.1822810   0.2226698  -0.2166407  -0.2703894   0.0901575
  -0.2733931   0.1048479   0.1260416  -0.0464103   0.1111460  -0.2136183
  -0.0212830   0.4413476  -0.0298901   0.3151534  -0.8598472  -0.6918385
   0.0894062  -0.6249753  -0.0089249  -0.4937655   0.1570657   1.1331272
   0.1698341  -0.5174003  -0.0743242   0.0943698  -0.2378469  -0.1088657
  -0.2966140  -0.6312567   0.4172839   0.8101580   0.2705374   0.5409247
   0.1618803  -0.0544164  -0.1049175   1.2077620  -0.0385181  -0.7134666
  -0.2508986  -0.4894888   0.4492748  -0.0462277  -0.0524074   0.2964297
  -0.2177555   0.0426308   0.8503965  -0.1800630  -0.8728485  -0.4990536
  -0.3709966   0.0099905   0.1408337   0.8991018   0.2634130  -0.5585211
  -0.3576598   0.6790058   1.2789237   0.0859237  -0.0627262  -0.1074114
  -0.6877570  -0.7022705   0.0679956   0.5415030  -0.0519594  -0.1278952
   0.1108371   0.3937397   0.1690173  -1.2775789   0.6410751   0.9081061
  -0.0662194   0.6688537   0.0155771  -0.0659060   0.1032182  -0.0562227
   0.2391114  -1.0532275   0.3486087   0.4350924   0.8317961   0.5706790
   0.1302346   0.0075199  -0.0200791   0.3148965  -0.0159007   1.0796642
   0.1205331  -0.1450243   0.1188585   0.2076094   0.0346312   0.1961023
  -0.1946943   0.1545980   0.1841500   1.5723627  -0.0176912   0.9151482
   0.3487087   0.5164248   0.3313639   0.6981096  -0.5015920   1.2932542
   0.6915305  -0.3476022   0.0282287  -0.1018703   0.2264859  -0.0850974
  -0.7057793  -0.0003822   0.3031670   0.1145349   0.1346606  -0.0665216
   0.0023262  -0.1508565  -0.0451272  -0.3942861  -0.0762456  -0.7068818
   0.2723730   0.1549473   0.1560569  -0.1174009   0.0559378   0.2983466
  -1.0293847  -0.0396514  -0.9892432   0.0643884   0.0152044   0.9066718
   0.1742552  -0.1557869   0.0758313  -0.4328237  -0.4933960  -0.4076199
  -0.6738476   0.2387729  -0.2740871   0.2171597  -0.0419998   0.2031307
   0.4510377  -0.6330837  -0.0198466   0.5240172   0.4503079  -0.2197730
  -0.2024060   0.1712327  -0.2016913  -0.2951086   0.1528806  -0.0809862
  -0.1526942   0.3114977  -0.2009800   0.2087328  -0.0145240   0.1569297
  -0.0476439  -0.9932921   0.2831474  -0.0391664  -0.5680397  -0.5302468
  -0.0908332   0.2414858  -0.2258353  -0.1735777   0.4435433  -0.0042201
   0.2539323   0.0175152  -0.2596739  -0.3168630  -0.1734140   0.1342743
  -0.4152396   0.0648698   0.5386871   0.1830084  -0.1671405   0.2047439
   0.2039881  -0.3928607  -0.2338238  -0.2364004   0.8008377   0.9511885
   0.7347011  -0.6256760   0.4557789  -0.1948364   0.0497044  -0.0152278
  -0.1711352  -0.0673879   0.0255534  -0.1629052   0.1393222   0.0421507
   0.0359157  -0.1707908  -0.0585856  -0.3485657  -0.3268313   0.1003347
  -0.0644673  -0.2712893  -0.0451577   0.0373201  -0.1775957  -0.0529135
   0.2517196  -0.9354243   0.3383581   0.3861295  -0.2503570   0.2850374
  -0.0840527   0.1082391  -0.2008469   0.5070570   0.8406899   1.2981932
  -0.3868432  -0.1435585  -0.2727386   0.1486924  -0.1203600   0.0401669
  -1.3691456  -1.1035265  -0.3505914  -0.0856673  -0.0613574  -0.3421804
  -0.0848031   0.1369751   0.0880988  -0.0771038  -0.1559084   0.4545383
  -0.0477238   0.3060136  -0.0962588  -0.0114418  -0.0075930   0.0328069
  -0.1836955  -0.4495302   0.4959918  -0.6224630  -0.1047363   0.0073126
  -0.1023810  -0.0908512  -0.0488574  -1.4293003  -0.4540096   1.0215265
  -0.6061463  -0.1382805   0.2774342   0.3647703  -0.0229338   0.0898432
   0.0663373   0.1075107   0.1150259  -0.1206903   0.5529143  -0.0136582
   0.0088987   0.1506678  -0.1661738  -0.1427099   0.0337638  -0.0999939
   0.5320483   0.6902733  -0.3015179   0.0008524  -0.0521544   0.0411122
   0.4080271   0.7767174  -0.2324064   0.8779963   0.8086657   0.3351243
   0.0563660   0.0740494  -0.1910967  -0.2267618  -0.1425470   1.1012569
   0.7760518   0.8632794  -0.3852071   0.4405389  -0.0312248  -0.0416329
   0.9364486  -0.1161155   0.2731181   0.0577230  -0.4204937   0.0990012
   0.3097109  -0.1865662   0.1958015   0.6044271   0.8055557  -0.5887983
   0.6866731   0.6873581  -0.5325973   0.1453316  -0.3096536  -0.3267114
  -0.2054430   0.4324360  -0.0396446   0.1467557  -0.4766774  -0.3942828
   0.2758476   0.1435305   0.0030820   0.0172608   0.4979852   0.2423092
   0.4244602   0.0694512   0.9008688  -0.2642412  -0.2002763  -0.2364238
  -0.8374026   0.2988005  -0.3666910  -0.4570519   0.0602496  -0.6971711
   0.0045960   0.0621429  -0.3199443   0.0914519   0.8394590  -0.3781786
   0.1190523  -0.3926949  -0.3391179   0.1558222  -0.1447069   0.2966916
  -0.4325204  -1.2219151   0.3621022   0.0300389   0.1104668  -0.1903845
  -0.0513990   0.0623840   0.0034269   0.8609486   0.3576567  -0.0651304
  -0.4788662   0.6950972  -0.6224129  -0.0732853  -0.0610482   0.1822970
  -0.1309731   0.2222268  -0.2598974  -0.5550764  -0.1206946   0.3869488
  -0.1999375  -0.0972771   0.1337278  -0.9947573  -1.0961992   1.2104380
   0.1621994  -1.2139733  -0.5211818   0.1896819  -0.1308997  -0.1003804
   0.4115058   1.1691036  -0.0546198  -0.1777778  -0.2637355  -0.9381727
  -0.1233776  -0.1594103  -0.1838381  -1.1190514   0.1083887   0.3502187
   0.0273006  -1.1883401   0.0691143  -0.2238685  -0.0689711   0.3144231
   0.0001389   0.5800695   0.6822309  -1.2258809   0.0281866  -0.0270839
   0.0531835  -0.1850795  -0.1049357  -0.3049254   0.1328576  -0.4881300
   0.8343083  -1.0353212   0.7451461  -0.2159881  -0.2497654  -0.2341578
   0.8609650  -0.2410771  -0.2027585  -0.1416476   0.0163188  -0.3881818
   0.5735542  -0.0335623   0.1111349   0.5960797  -0.0219570   0.1205837
  -0.2121419  -0.3932489  -0.1328844  -0.2064629   0.0699143  -0.3054418
  -0.0405506  -1.7371860  -0.3982556   0.3541437  -0.8987804  -0.9583955
   0.0507020   0.2094367  -0.0172997   0.0346245   0.1138090  -0.1616452
   0.0609558   0.4631961   0.2867302   0.0971000   0.1859807  -0.0549732
  -0.3780580   1.5260241   1.5975084   0.8523530   0.9283971   0.3957704
  -0.3995101  -0.0890909   0.1886834   0.0887876  -0.3570763   0.9480234
   0.0611776   0.5839817  -0.0632555  -0.1140376   0.0646014   0.1224246
   0.0583877  -0.4832700   0.0630660  -0.5156522   0.0949267  -0.3879640
   0.0778263   0.0966506   0.2003038   0.2391149   0.2338833  -0.1867758
  -0.0501385   0.3979091   0.0046218   0.0471517  -0.1087257  -0.0364110
  -0.8450016   0.4223329  -0.0137779   0.2302003  -0.3368443   0.9077780
   0.1067173  -0.1793507  -0.2019144   0.6138687   0.2300795  -0.5317607
   0.2311566  -0.2265292   0.6862836  -0.1431849   0.0763906   0.0020568
  -0.0532681  -0.2554007  -0.0796738   0.6621178  -0.7386719  -0.1551133
   0.1945300  -0.0026643   0.1596414   0.3857157  -0.8711567  -0.4430512
  -0.1036967  -0.5108735  -0.0376068   0.2230940   0.5152201  -0.3909633
   0.0562559  -1.0028541  -0.0246968   0.4356147   0.8183107  -0.6023231
  -0.2510537  -0.0631738  -0.0222944  -0.0997821  -0.0991750  -0.8457327
  -0.0721576  -0.0853191  -0.7260427  -0.1545860  -0.0259877  -0.0044053
  -0.3464779   0.6373038   0.4624188   0.0685964  -0.0215771  -0.2535835
  -0.0730339  -0.0584256   0.1185409  -0.0497941  -0.0176932  -0.0958139
  -0.5945183   0.1012702  -0.9112787  -0.1820052  -0.0961488  -0.3832573
  -0.3800700   0.2416870   0.3874040  -0.2783350   0.1950141  -0.2975072
   0.0810684   0.1498301   0.2494208  -0.2078602   0.6818681  -0.1330279
   0.6438839  -0.7837244   0.2182587  -0.4154587   0.0422696   0.1466534
  -0.3301447   0.0173261   0.1317714  -0.3334157   0.0626184   0.0209020
  -0.4923095   0.0486345   0.2636218  -0.4142497   0.1205635   0.1619908
  -0.0070275   0.5833452  -0.6242346   0.3047151  -0.0611537  -0.4263967
   0.8556504  -0.4419694   0.6433985  -0.8890200  -0.5606747  -0.4144783
   0.1857672   0.0708328   0.4770626   0.9670179   0.4758276  -0.2275280
   0.0003444   0.6697014   0.7776188  -0.3108237   0.0892435  -0.0021201
  -0.7968498  -0.1862730  -0.0991342   0.5273679  -0.7918329  -0.4614737
  -0.0041482   0.1031573  -0.4939323  -0.0795574   0.2729211  -0.1791299
  -0.3066184  -0.0771809  -0.5639415  -0.2688365  -0.1381424   0.0649051
  -1.2869137  -0.4289861  -0.1147452  -0.0310026  -0.8458888   0.0936210
  -0.2901871   0.0474226   0.3579716  -0.3606159   0.0110554   0.3144003
  -1.0798576  -0.4252825  -0.9196847   0.3779985  -0.1571108  -0.2077631
   0.6390706  -0.2518568  -0.1442412   0.4202489  -0.0652679  -0.1762684
  -0.2425035   0.0584312  -0.1259122  -0.2858948  -0.3201502  -0.1331157
  -0.2872389   0.6642541  -0.2443939  -0.0325151   0.0594995  -0.0733724
  -0.1195337  -0.0708816  -0.0732486   0.2903579   0.5628244  -0.0674147
   0.2049358  -0.0627586   0.1058138   0.0558408  -0.4039982   0.6282273
  -0.3119216   0.2812986  -0.0053150   0.1249052  -0.0736799   0.2510769
  -1.2435608   0.0464802   0.0323546   0.3620724   0.7977391   1.4971987
   0.0898607   0.2204679   0.2065576   1.2905175   0.6237693  -0.1514081
   0.3415420  -0.0779054  -0.5996519  -0.3711263   0.0050537  -0.0890315
   1.0031893   0.6613433   1.0344337   0.1539433   0.1987907   0.2722962
  -0.1808177   0.0909323  -0.2644929   0.2639936   1.3360600   0.8904067
   0.0679194  -0.1876396  -0.9992500  -0.0271451   0.1075554   0.0706601
  -0.9691388   0.0883539   0.4817974   0.4141203   0.2999055   1.0066098
  -0.3370855  -0.0543961  -0.1669951   0.6559128  -1.2588463   0.6822865
  -0.4499106  -0.3663229   0.1222594  -0.2924904  -0.1007074  -0.2744596
  -0.5641308   0.4532397  -0.4816256   0.0840395  -0.1274541  -0.2051921
  -0.0031481   0.2370953   0.1515037  -0.6820584  -0.9237774   1.8760718
   0.1265019   0.5888149  -0.2871722   0.0759405   0.2482193  -0.2006599
  -0.2804230  -0.2591026   0.8826003   0.4624161   0.5978709   0.4687810
  -0.1077854  -0.0854078   0.3412917   0.1951625  -0.8008436   0.6366260
   0.8007971   0.2893830   0.5332282  -0.0330645   0.3217205   0.0437826
  -0.1516354  -0.7715802  -1.0983501   0.1847897   0.1198335  -0.2725640
  -0.0760189  -0.0661200  -0.2259618  -0.2240472   0.2956325  -0.2216785
  -0.0255040  -0.6070589  -0.3448426  -0.4870169   0.1463047  -0.1634426
  -0.5629433   0.4982393  -0.7533971  -0.1515474  -0.2848945  -0.3061008
   0.0552842   0.2986810  -0.0480811   0.1549018   0.1758687   0.2365641
   0.5655115  -0.2746681   0.0352299  -0.1357053   0.1088497   0.0280132
   0.5701707   0.2353929   0.7649584  -0.3330209  -0.1239114  -0.5882521
   0.0879990  -0.0610310   0.0120643   0.9239402  -0.1515359   2.2826911
  -0.6177722  -1.0208854  -0.7038721   0.1029957   0.3187497   0.2707131
  -0.1172378  -0.0019724   0.5334010   0.0830886   0.1686113  -0.1917538
   0.1171763  -0.1188593  -0.0371167  -0.1496634  -0.2943908  -0.5623880
   0.5875765  -0.1868782   0.1636664   0.2141369   0.2056437  -0.3152096
   0.0187532  -0.6271968   0.2791899   0.0612956   0.3413829   0.4241341
   0.1462886   0.0260938   0.2180632   0.6311539   0.9675880  -0.9821305
   0.9130014   0.9564153  -0.3110973   0.1107995   0.1455726  -0.3334553
   0.1199073   0.5677288  -0.0362240   0.6189004   0.0050490  -0.4285079
  -0.0275169  -0.2762461   0.3187179  -0.3661030  -0.3199289   0.5900381
   0.8394624  -0.5937523  -0.2474467  -0.0359007   0.0958307  -0.1723402
  -0.7032147  -0.0822909   0.0401484   0.2470480  -0.3955467  -1.0800032
   0.1520455  -0.1694982   0.0361083  -0.1072597  -0.2151369  -0.1230506
  -0.3021721  -0.0931685  -0.0072135   0.2778863   0.1345620   0.2126244
  -1.2017024   0.0894210  -0.6740957   0.1744745   0.4619852   0.4948710
  -0.2816837   0.0578465   0.0367272  -0.3321310   0.1334630   0.0117769
   0.4926883   0.4544505  -0.0893379  -0.1256868   0.0647964   0.1863990
  -0.2616199   0.1381641   0.1614028   0.3050214   0.5762861   1.1770710
   0.1206369  -0.0484472   0.0375848  -0.0402371  -0.0019448  -0.1073209
   0.8916636   0.6035270   0.0183896   0.1248072   0.0949006   0.1402288
   0.2629074   0.2422222   0.0109216   0.1249330   0.0754788   0.0589036
  -0.1528025   0.3317091  -0.0939867  -0.0327515   0.2710687  -0.2163112
   0.3220234   0.0769332   0.3355417   0.0313592   0.1585944   0.2060022
   0.1488310  -0.8005520   0.1012165  -0.1807332   1.3131912   0.3764665
  -0.1804576  -0.0781032   0.0674706   0.1847214  -0.4965120  -1.0771544
   0.2798979  -0.1258822  -0.5692518  -0.1224831  -0.0310613   0.2778892
  -0.4414417  -0.0047098   0.6016133  -0.1879439  -0.5424609   0.1324147
  -0.0665600  -0.2088110  -0.2083030  -0.3154923   0.5197558  -0.7597895
  -0.1155979  -0.5520592  -1.0995670   0.0819481  -0.1117258  -0.2055283
  -0.0157203  -0.2081269  -0.3660364   0.4843889  -0.7735390  -0.1407829
  -0.0973517  -0.0249349   0.0128239   0.0426630  -0.1907652   0.0430147
   0.9745906   0.5570753   0.4476488   0.1099308   0.0506975  -0.0663446
  -0.2038143  -0.5710858  -0.6395820  -0.1377668  -0.5487478  -0.6443208
   0.2677795  -0.1384212  -0.2536714  -0.0556677   0.1037267  -0.2683654
  -0.6987470  -0.4006765   0.0615715  -0.0100885   0.0153807   0.0064070
  -0.5937497  -0.1708923  -0.1358827   0.7914249  -1.0840634   1.1348871
  -0.0636518  -0.1964139  -0.4527062   0.9398665  -0.2161124   0.1901602
  -0.1820393   0.7600663  -0.4946293   0.3025891  -0.0853958   0.2757237
   0.3045062   0.0651835   0.3234483   0.4655812  -0.1067458   0.0548655
  -0.0526645  -0.3320785   0.0382646   0.6675325  -0.0882422   0.4658132
  -0.5754874   0.7273527  -0.7092176   0.0904763   0.0060516   0.0478956
  -1.2599604   0.0473402   0.5613343  -0.4086199  -0.0807146  -0.1195992
   0.0194480   0.1509567  -0.0210042   1.9629398   0.5660925  -0.4360910
  -0.9874679  -0.0197058   0.2110361   0.2158717  -0.2165856  -0.2344970
  -0.4380359  -0.4401164   0.1593872   0.0023279  -0.2664909  -0.0904583
  -0.2798759   0.2101876   0.1207938  -0.1190139   0.3250488   0.0815070
  -0.1897086   1.5037720   0.7511473   0.4018561  -0.2063364  -0.3075115
   0.1137137   0.0514103   0.0344645   0.2678526  -0.0112089  -0.0515875
  -0.0827744  -0.1189060   0.0080749  -1.3098469  -0.8332309   0.3599237
   0.2793415   0.0417677  -0.2178033  -0.0698323   0.1612900  -0.2440240
  -0.5345441  -0.3249109   0.3651139   0.2995263   0.2091239  -0.9850447
  -0.0102999   0.1714096   0.0342076  -0.3210845   0.1540809  -0.1430250
  -0.3614748   0.2009361  -0.3497595   0.0329263  -0.1842478  -0.2098024
   0.1679066   0.1800984  -0.1846848   0.0407281  -0.4759028   0.3835656
   0.2487099   0.0157851  -0.0857040   0.1868222  -0.1726005  -0.5457323
   0.1886355  -0.3610984  -0.0868567   0.0022707  -0.1982482   0.1250603
   0.2375431  -0.6523756   0.0934676   0.4958749   0.4065810   0.0940556
   0.2236609   0.0915553   0.0982666   0.0721891  -0.4795666   0.5078135
  -0.0616373   0.4343737   0.0865170  -0.0172246   0.0894376  -0.0569587
  -0.2633430   0.5863848   0.4758921   0.3189081  -0.6758715   0.5666904
  -0.0682879  -0.1526183  -0.0260096  -0.3318994   0.1561607  -1.2125469
  -0.0263185  -0.0125237  -0.1247832  -0.1452213   0.2191372   0.1587708
  -0.7115184  -0.0222332   0.2297966  -0.9525569   0.4425445   0.1953712
   0.1034459   0.5431210   0.0816479   0.4051410   0.9384529  -0.1655385
   0.1221169   0.2448543   0.3080572   0.2247333   0.2215395  -0.2426474
   0.2444197   0.2434666  -0.1714522   0.2426026   0.2306335  -0.2286317
  -0.1597092   0.0768519   0.0059604   0.5817786   0.8154649   0.2689163
  -1.4640469  -0.0482180  -0.5407188   0.0112539  -0.0055309  -0.0022492
  -0.3765375  -0.4496696   0.0550716  -0.8065004   0.5559633   0.1063918
   0.0272570  -0.0390703   0.2647343   1.8712547  -1.1308472  -0.8942984
  -0.0030471   0.8853755  -1.5281378  -0.0113889  -0.2324430  -0.3024374
   0.1830637  -0.1326656  -0.2355342  -0.5861207  -0.3997889  -0.7735900
  -0.0970020   0.1299929  -0.3464278  -0.3905964   0.3815690   0.5014805
   0.5293611   0.8719899   0.5667325  -0.0482363   0.1110256  -0.3546219
  -0.9279855  -0.1892230   0.0399246   0.2923025   0.3062469  -0.4732866
   0.2697200  -0.1747407   0.0415354   0.5830296   0.2391503  -0.3694212
  -0.5952715  -0.3566361  -0.0045134   0.1768090   0.1693270  -0.1149976
   0.2132656  -0.4991481   0.1318080   0.7208008  -0.1994509  -0.3293708
   0.1580156  -0.3232160  -0.1365390  -0.2567696  -0.5401750   0.2109211
   0.0015360  -0.1803856  -0.5674812  -0.1199672   0.0506900  -0.0246685
  -0.1305097   0.0541171   0.1177905   0.0673798  -0.6711030  -1.0642697
   0.0277992   0.0376432   0.0413660   0.1383874   0.3102100   0.5986925
  -0.4982537   0.1537319  -0.3322045  -0.1230757  -0.2122124  -0.1992439
   0.0905001  -0.9002067   0.0934983   0.8633568   0.0426103  -0.5795649
  -0.1884765   0.2873719  -0.2299996   0.9562516   0.4990300   0.4808116
  -1.0765054  -1.0098475   0.5132929  -0.1580056  -0.2923433  -0.0935456
  -0.4564644   0.0061831  -1.4899771   0.5640761   0.2091810   0.2796635
  -0.0543584  -0.0417452   0.1629647   1.0767971   0.4096945  -0.6380850
  -0.3656792  -0.2442875   0.3422774   0.1004716  -0.0200312   0.3363679
   0.4822838   0.0855984   1.8508828   0.5645790  -0.1381171  -0.1828335
   0.3429130  -0.2218674  -0.0207678   0.3709976  -0.8083163  -0.0488446
   0.1338819   0.1609155  -0.0903940   0.0443346  -0.4538002  -0.1463047
   0.2524876  -0.1690869   0.6764030   0.1210845  -0.2617971   0.8041637
   0.1419491  -0.0040511   0.0183292   0.2445800   0.1394275  -0.5870614
   0.0908654  -0.0331867  -0.0337135   0.1573834  -0.3419362   0.1160767
  -0.5664704  -0.0104704   0.1612509  -0.2269038   0.0514431  -0.2423490
  -0.1373997  -0.1003101  -0.0198185  -0.5726521  -0.2624950   0.3047126
   0.5916224  -0.6418139  -0.9445531  -0.0033005  -0.0843092  -0.1057810
   0.1512812  -0.2149828  -0.2712768   0.0447831  -0.7798466  -0.5637325
   0.1250396  -0.4134200  -0.0089048   0.1236766  -0.5559895   0.8257510
   0.3199655   0.4357549  -0.2182116  -0.0132530  -0.1284050  -0.3118563
  -0.2337790   0.3336692   0.3838766   0.2991216  -0.8009751  -0.6258083
  -0.2655991  -0.0722297   0.0130283  -0.6356614  -0.0758226  -0.3263430
  -0.1818829   0.7904651   0.7359264   0.3544103   0.0630393  -0.1515550
   0.6897660   0.7790512   0.1191522   0.5206033  -0.8012854  -0.2187430
  -0.3214374  -0.0876538  -0.0558935  -0.6351451   0.0861751   0.3237810
   0.0062208  -0.2936550  -0.2760139   0.0437704   0.0316741  -0.2172232
   0.1463233   0.3004525  -0.4055307  -0.2126937  -0.3965127   0.3939651
   0.2378646  -0.2316415  -0.2383469  -0.4863829   0.2273772  -0.0994580
   0.4271469  -0.0753116  -1.0628139  -0.1578786  -0.2973416   0.0890601
   0.2280824  -1.0674989   0.3129668   1.1721322   0.5688322   0.6900350
   0.1164579   0.5731304  -0.1328015  -0.6706899  -0.3075124  -0.2264151
   0.6578790   1.4529737   1.2701086  -0.3269330   0.2374163   0.1673538
  -0.1407025   0.2482745  -0.3199623   0.5266613   0.3700182  -0.6254090
  -0.0122534  -0.0704614  -0.1907555   0.1124537  -0.3374115  -0.2033387
  -0.0364823  -0.4673069  -0.1717588  -0.1650434   0.1307202   0.2924399
  -0.0851379  -0.1162145   0.4548542  -0.1584551   0.2537847   0.4325982
   0.1935075   0.1577262   0.3296510   0.7189654   0.3391815   0.9824755
  -0.5943338   0.2828497   0.6381499   0.0683289  -0.1296094   0.1831575
   0.3179623  -1.8665763   0.3356077   0.4225828   0.4937341  -1.2193963
  -0.0418655   0.1460192   0.1960691  -0.6021275   0.1297940  -0.3166737
  -0.8438091   0.2324758  -1.0090932  -0.1698374   0.1468469  -0.1161494
  -0.8564138   0.4247751   0.4260901   0.5606341   0.2239413   0.4086650
  -0.0834879  -0.2027721  -0.2809786  -0.2412828  -1.1578091  -0.4698979
  -0.0954558  -0.6140341  -0.3186799  -0.0276970  -0.1134824   0.2676282
  -0.1370655   0.3291017  -0.3857548   0.3604157   0.1897275   0.1631868
   0.4131251  -0.0094022   0.0674927   1.1115396  -0.1570166  -0.1502983
   0.9340873   0.0530775  -0.2805632   0.2689437  -0.1390327   0.0304783
  -0.0840581   0.7333487   1.5880255   1.6371073  -0.0467651  -0.1157346
   0.0248049   0.0603972   0.1446463   0.4670837   0.7523114  -1.1180138
   1.1812754   0.3291721   1.2250578  -0.2388128  -0.0565495  -0.3237945
   0.3446353  -1.2969164  -0.5261172   0.4908312   0.3298304  -0.2645891
  -0.0827019  -0.1540402  -0.2091995  -0.3043051   1.1661889  -0.7234317
   0.9754995  -1.1707008   0.1165028   0.0927860  -0.0572291  -0.0856141
  -0.2885891   0.9396462   0.3268635  -0.6930988  -0.4317503  -0.8403437
   0.0247443  -0.3075911   0.1642116   0.8000639   0.1535405   0.8608429
  -0.3935891  -1.0490033   0.4349290   0.1554989   0.1386151   0.0930696
  -0.0497411  -0.3443365   0.4086719   0.2841035   0.3842324  -0.0784896
  -0.2852721  -0.2484153   0.3825757   0.0680692  -0.0447857   1.2020111
  -0.7379964  -0.1400361   0.4760938   0.0266545  -0.2988512   0.0881561
  -0.4577121   0.5348990  -0.3816957   1.5859302   0.3180058  -0.1049123
   0.2065583   0.0340627  -0.2468073   0.0580582  -0.0028916  -0.2406968
   0.3213899   0.2690375  -0.3204386  -0.1824501  -0.2169175  -0.3097481
  -0.1883413  -0.4470969  -0.6963896   0.1585862  -0.2505631   0.2620029
  -0.0702008  -0.4009881  -0.1296395   0.2352372   0.6222519  -0.1961991
   0.0874938   0.1336161   0.4295247  -0.1123465   0.1751089   0.0345750
   0.2099553   0.3856212  -0.1093677  -0.1806246   0.1027641   0.0602586
   0.3318117   0.2039255   0.1890563  -0.6981667   0.1570207  -0.6110801
   1.0421823   0.9828996  -0.1834149  -0.1265810  -0.1109586  -0.3155793
   0.1297836   0.1159609  -0.5005483   0.2887486   0.1320395  -0.6591417
  -0.0147726   0.0869826   0.0144713  -0.1196639  -0.3355557  -0.1789014
   0.7994808  -0.1615842  -0.1790701   0.1906331  -0.0749103  -0.0919560
  -0.4980169   0.4464097   0.0628049  -0.1285971   0.4185344  -0.6578099
  -0.0863254   0.0882700   0.2195817  -0.4388447   0.5891714   0.7401177
  -0.2097551   0.3456142  -0.3286013  -0.0620400   0.6934865   0.1393683
   1.4195062   0.0876203  -0.8859543  -0.8185568   0.0000873  -1.2841044
   0.2688328  -0.1675840   0.0032652  -0.6412502  -0.1474219   1.7507416
   1.7772839  -0.1494254   0.6215148  -0.2596634   0.0407346   0.0745652
   0.3180170   0.5207666  -0.5144888   0.1092748  -0.7082637   0.1280399
  -0.3092880   0.2325450  -0.1249010   0.5436715  -0.2066087  -0.1084102
   0.2018634  -0.0209435  -0.1211539  -0.0456995  -0.0995549  -0.1913890
  -0.9410275  -0.2997705   0.0718271   0.5481875  -0.1390674  -0.0081849
  -0.0711207  -0.1806370   0.0650173  -0.5233080   0.7183038  -0.3661660
  -0.8003445  -0.8680414  -0.1781824  -0.1921009  -0.4211596   0.2389441
  -0.1552956  -0.9727408   0.1798798  -0.1837577  -0.0359862   0.1561875
  -0.0688046   0.2401534   0.0147310   0.1017999  -0.1582649  -0.3171473
  -0.3278018   0.0761486   0.0411202  -0.0508847   0.2131521   0.2457717
   0.7461590   0.0807744   0.1352339  -0.1489350   0.8956316   0.7461745
   0.1778264   0.0629744   0.1663895   0.1205865  -0.3374760  -0.0402974
   0.7242981  -0.6070736   0.7426035   0.2753870  -0.0359350  -0.0903658
   0.1940067  -0.0534961  -0.0999643   0.5377200   0.0019617  -0.7923775
  -0.0381725  -0.0479991  -0.2284235   0.8147009  -0.1645249   0.3839043
   0.3846903   0.5041276  -1.1171435  -0.0487688   0.2961636   0.1920792
  -0.1981433  -0.2374155   0.0896636  -1.0790286   0.6379220   0.4086821
  -0.2074552   0.1155987  -0.2269143  -0.3339835  -0.2811770   0.0235516
  -0.0198421   0.8141213   0.4387308   0.0648449  -0.2420815   0.0445157
   0.2472924  -0.9556752   0.4107817   0.4385888   0.1384054  -1.0493582
   0.3947055   0.3157120   0.3360450   0.5359238   0.4235388  -0.0580024
   0.3925602   0.0371730   0.6398027   0.2096536   0.0136025   0.2180510
   0.0958897   0.6173331   0.1711487   0.3718060   0.4429079   0.5519501
  -0.0732936  -0.0656615  -0.3275715  -0.2501298   0.2286215   0.4248126
   0.1713957  -0.4233921  -0.1862786  -0.0671163   0.0062124  -0.0458867
  -0.3332906   0.1722660  -0.8138454   0.6781398  -0.6869444  -0.0131042
   0.4506731   0.0801052   0.0286842  -0.4005973   0.4932777  -0.8571793
   0.2980778  -0.3994524   0.0956676   0.0074766   0.0257807   0.1933573
  -0.3511732   0.3919676   0.1473628  -0.4124325  -0.3748421  -0.1557439
   0.2228940  -0.2725341  -0.0224229   0.9205640  -0.2187162  -0.8970130
   0.8939649  -0.1274923  -0.0028651   0.1364898  -0.2093101   0.0008465
  -0.5296677   1.1062158  -0.5982132   0.5564238  -0.8488999   0.2271568
   0.1033129  -0.2628433   0.1118202   0.2125936   0.3575202  -0.7531838
   0.3942880   0.4103410   0.6037093   0.1092658   0.0897726  -0.2070301
  -0.3229438   0.6630276   0.2045086  -0.9981180   0.6890951   0.5148213
  -0.1983934  -0.2592958  -0.0370713  -0.2082654  -0.3050709  -0.0186854
  -0.0020956   0.6882602  -0.3817280   0.0922209   0.0850804   0.3466562
  -0.6654831   0.7867004   1.2865566   0.2892548  -0.1372713   0.2183810
  -0.1500737  -0.2029428  -0.0698995   0.2040990  -0.2211867   0.5274997
  -0.7319649  -0.3089225   0.0097305   0.2316205  -0.1533581  -0.4536425
   0.3732901  -0.4161257   0.4080523  -0.5658089   0.0537983  -0.5613651
   0.0043622  -0.1738439   0.1558371   0.2024097   0.3463744  -0.3123295
   0.3407065   0.6881751   0.4675129   0.0804604  -0.1826892   0.1834921
   1.1713510  -0.8587692  -0.4367857  -0.3151011  -0.4374169  -0.6395255
   0.1687122   0.3394667  -0.2418164  -0.0746010   0.4698493  -0.1058872
   0.0660363   0.3658659  -0.4027339   0.0751225   0.2410914  -0.1825178
  -0.3553498   0.6246776  -0.7375769   0.0974357  -0.1564693  -0.5618577
   0.4516198   0.0542155  -0.3888499  -0.3656271   0.1861142  -0.6019289
   0.4876104  -0.5182613  -0.6804937  -0.0767053  -0.2089719   0.1838883
   0.7369332   0.0249644   0.5963750   1.2915808   0.4835850   1.2095923
  -0.0272855   0.2480522   0.0149080  -0.4509900  -0.3707201  -0.3936795
  -0.4726560  -0.0151458  -0.2338906  -0.2943610   0.2205609  -0.1834865
  -0.7710992  -1.4208748  -0.5589022   0.5324933   0.4925705   0.0908730
   0.0043164  -0.1671821   0.0411596  -0.1417149  -0.0088023  -0.0691699
   0.8212757   0.1879938  -0.1966473  -0.3458239   0.1241041   0.2995501
  -0.1969648   0.0681139   0.4185476  -0.1719008  -0.2550763   0.1235190
   0.1759019  -0.0228665  -0.0127029   1.3854748  -0.3642812  -0.5057749
   0.3976017  -0.0308861  -0.2572040  -0.1726257   0.2852263   0.2332302
  -0.4153978   0.6830148   0.5578821   0.2300407   0.4850089   0.2834299
   0.1225211   0.2083478   0.0394663   1.6173912   0.6186982   0.3825549
  -1.0156709  -0.0828789  -0.2677178   0.0343775  -0.0690192  -0.2249440
  -0.6507607   0.4021098  -0.5630783  -0.0682698  -0.9080336  -0.1030187
  -0.1145849   0.0528336  -0.1374639   0.1539778  -0.6629130  -0.1227491
  -0.7175877  -0.1525174  -0.8110694   0.0004003   0.4274042  -0.0905010
   0.8329637   0.2989159  -0.0576447  -0.2310582   0.9422917  -0.8164202
   0.0158375  -0.2334434  -0.2362177   1.0074025  -0.6593077  -0.6669223
  -0.7707978   0.5927677  -0.4914817   0.0002874  -0.2719931  -0.1269638
  -0.2862158  -0.4330193  -0.3412265  -0.2572285   0.5145460   0.6945152
   0.3268102  -0.1400661   0.3077601   0.6451493  -0.5842672   0.4116792
  -0.0821117   0.4193773   0.4023007   0.0826480   0.1293455   0.2899795
   0.5523627   0.2167382  -0.5771121   0.0079754   0.8610100   0.8293985
   0.1712375   0.0765091   0.0836665   0.3582294   0.1858447  -0.0818345
   0.2889404   0.1941259   0.1115748   0.2762417   0.1101984   0.0408833
  -0.1130724   0.1358333  -0.1257903  -0.8051654  -0.3628542  -0.0883962
   0.4678889   0.3023700   0.1313753  -0.4547459   0.1772639   0.1187351
  -0.2395437   0.5548801   0.6380778  -0.1954166   0.2394897  -0.1705164
  -0.6447937   0.2006841  -0.4279988  -1.4727370  -0.5532675  -1.4624135
   0.0602241  -0.0710836  -0.2090911   0.0921191   0.0087293  -0.5220734
   0.3699564  -0.1609771  -0.7124064  -0.2807899   0.2561530  -0.0757316
  -1.3637699  -0.5724007  -0.2376040  -0.0103082   0.0725779   0.7623091
   0.1119146  -0.3196951   0.1131542  -0.3030093  -0.4401259   0.0004584
   0.1136007   0.6078686  -0.4079088   0.1851950   0.2151110  -0.0374453
   0.3842031   0.3827018   0.0702187   0.4158963   0.4622386  -0.4986765
  -0.2438952  -0.2064166   0.0175076  -0.0964094  -0.5942101   1.2210873
   1.0812674  -0.2644322   0.2778763  -0.2171379   0.2251111   0.0560317
  -0.6094199  -0.5257935  -0.9114996   0.0030029   0.3000622  -0.2246863
  -0.2796852   0.1630988   0.1268123  -0.2253561   0.1267666   0.1418561
  -0.1669179   0.3047697   0.1494120  -0.0410396  -0.0904588   0.1552890
   0.2585360   0.4791061  -0.0169768  -0.1500208   0.3866758  -0.0167656
   0.0358148   0.0090917  -0.1695495  -1.1941073   0.0567653  -0.1592907
   0.0041133  -0.0336303  -0.5370004  -0.2201619   0.1133998  -0.1066895
  -0.2112200  -0.4267301   1.0463125  -0.2132419   0.5247114  -1.0712955
   0.0334702  -0.0164127   0.1100424   0.0335304  -0.2778927   0.6361075
   0.9127412  -0.4155986  -0.3636607  -0.0196914   0.0654337  -0.0937965
  -0.2496701  -0.6528462  -0.0263725   1.1357707   0.8862708   0.0545214
   0.0776125   0.0683672  -0.0936842   0.1331692  -0.0582425  -0.0637883
  -0.2841040   0.9419033  -0.2772267   0.1045344  -0.0468045  -0.1474079
   0.0068550  -0.3845075  -0.9081359   0.2270676  -0.9951046   0.0639236
  -0.1586932  -0.0844493  -0.1558985   0.1381427  -0.4856518   0.6760529
  -0.2489606  -0.2568522  -0.3183850   0.0319324  -0.2312536   0.0544175
   0.2340705  -0.1100625  -0.2928229  -0.5157900  -0.0100745   0.2014352
  -0.3734344   0.0470263  -0.1777359  -0.8104082   0.3611985  -0.1845727
  -0.7615820   0.5968708   0.1663360  -0.0580181   0.0478685   0.0967813
   0.1073110   0.3590940  -0.4432191  -0.2919491  -0.3441850   0.2669853
   0.0140880  -0.3064667  -0.4011661  -0.7958385   1.0533726  -0.2288311
  -0.8787751  -1.2399527   0.1874414  -0.1257197  -0.2177004  -0.0593947
  -0.3781967   0.2698133  -0.1160800   0.0724829  -0.2807175  -0.5553744
   0.1475172   0.0288443  -0.0620358   0.0503036   0.0041383  -0.1172785
   0.2833846  -0.0479112   0.0419406   0.1416787  -0.2255910   0.0162803
   0.0203173   0.5833590  -0.2535372   0.0520096   0.6077263  -0.2537771
  -0.0398465  -0.1256309  -0.0525177   0.1244982  -0.4063089   0.3003934
  -0.0941979   0.0027964  -0.2322786  -0.0645143  -0.0425557  -0.0442325
   1.1945338   0.4868767  -0.3951986  -0.9266817   1.0327810  -0.2891276
   0.0978871   0.0638620  -0.2012000  -0.4189446   0.0421608  -0.4805505
  -0.2624471   0.0515940   0.8045823  -0.0270672  -0.0115569   0.3024611
  -0.6013655   0.5668459  -0.8679415  -0.3423002   0.6777884   0.6264167
   0.2178059   0.1758119   0.0611651   0.7223855  -0.6935463   1.0608021
   0.1876629   0.4577957   1.0891820   0.1507604   0.1911041  -0.2552523
  -0.3469340  -0.4362891  -0.7934540   0.6920095  -0.2176245   0.1337164
  -0.0508340   0.0760739   0.2184840   0.1569726  -0.5421993   0.1756958
  -0.7069040   0.0032771  -0.1342315  -0.0635839   0.1551582  -0.2275289
  -0.0764372   0.1551204  -0.4232805   0.0633574  -0.2819554  -0.3115865
   0.0180715  -0.0411471   0.0149869   0.0290831  -0.8420635  -0.0359895
   0.1760621   0.0780289  -0.3888039  -0.5348039   0.1719051   0.1819528
  -1.4553929  -1.0811479   0.0864264  -0.7313176   0.1288835  -0.7049125
  -0.2174310  -0.0449244  -0.2224553   0.2662204   0.0732707  -0.1066871
   0.0696255  -0.2218061  -0.1068172   0.4789143  -0.2269988   0.3397787
   0.7919326   0.3578968  -0.0540213  -0.4691036  -0.2223946   0.1127116
   0.1622283  -0.2993925   0.2732694   0.5569237  -0.2033875  -0.4051718
  -0.4053221   1.0210932   0.1243517   0.2821239   0.0866337  -0.0281488
   0.3646619   0.3839642  -0.5491047   0.2880661  -0.1153722   0.4073765
  -0.1871563  -0.0910855  -0.0749140   0.3909074  -0.0668870   0.1610102
  -0.9360939   0.1106185  -0.4579646   0.0734770   0.0628950   0.0395847
   0.9041297  -0.2964696   0.0420088  -0.1698176  -0.3395127   1.1088772
   0.1104132  -0.1056187  -0.0994239   0.4120086  -1.0094212  -0.1733366
   0.2902011   0.6381075   0.7213201   0.1032303   0.2705777  -0.2433007
   0.9194665  -0.5166483   0.0741385  -1.1052147  -0.4171174  -0.1449068
  -0.1242647   0.2038211   0.2276884  -0.6440241   1.3851825  -0.4309287
  -0.2889936   0.6670698   1.3802117   0.1036100   0.1678111   0.2784455
   0.6020901  -1.0329555  -0.7609376   0.5302720   0.5769265   0.8914518
  -0.0883017   0.4509219  -0.0106770  -0.3255196   0.0121511   0.0900627
  -0.1416499  -0.3236936   0.2567591  -0.0457390  -0.1867209   0.1002066
  -0.2459597   0.7142830  -0.5494805   0.2722031  -1.4138856   0.9713871
   0.1779049  -0.1009945  -0.0491951   0.1674955  -0.1441657   0.0268204
   0.1941814  -0.0740567  -0.2690075   0.1515850   0.0164164  -0.0841012
   0.0452065   0.3961608  -0.1347420  -0.0284979   0.1285884  -0.2452705
   0.0930282  -0.0701507  -0.0378904  -0.1738423   0.0745788   0.0354810
   0.0407002   0.1278170   0.0224104  -0.0567966  -0.2085851  -0.1014927
  -0.6623980  -0.7261488  -0.7218692   0.7710249  -0.0231142   0.3032442
  -0.2301637  -0.4969988  -0.0572163   0.0037898  -0.6636193   0.2679610
  -0.5739141   0.2391438  -0.2196590  -0.0871485  -0.4127046  -0.1459523
  -0.5704896   0.9909832  -0.1806108  -0.3517521   1.0148536  -0.3953713
  -0.2638829   0.0108121   0.0731000  -0.0498630   0.0651788   0.3374156
   0.2863799  -0.6266942   0.2381756   0.2669497   0.3541766  -0.2184676
  -0.1401226   0.0949748   0.4261002   0.3432415   0.4401494  -0.6240436
  -0.0895125  -0.0225537   0.2104078  -0.2504867  -0.1874635  -0.2302604
   0.0006604   0.1042489   0.4532324   0.0248285   0.1081009  -0.0017594
  -0.3134367   1.1617967  -0.0227625   1.6067561   0.7807424  -0.4517119
   0.3415693  -0.3406957   0.0763091   0.0419158   0.4692008   1.0705365
  -0.3197321  -0.2945799   1.0775614  -0.1771835   0.0890932  -0.0253424
  -1.0101073   0.6325376   2.0653148   0.0622370  -0.2903822  -0.9242029
   0.2701550   0.1796435   0.3064317  -0.5552272  -0.2823743   0.4991995
   0.7518453  -0.3392715   0.3841307   0.1801924  -0.0381225  -0.0511148
  -0.4555550   0.2551006  -0.9347949  -0.1856530  -1.3007964  -0.0282030
  -0.2159472   0.2708481  -0.0443789  -0.7240778   0.4635056  -0.0743733
  -1.0656200  -0.8438116  -0.4472767   0.1632337  -0.0655351   0.7148760
   1.1121846  -1.3567380  -0.4933010   0.4078214   0.6306072  -1.1696592
  -0.0653615   0.2105231  -0.1042407   0.9714244  -0.1294925  -0.8944506
   0.1064187   0.7271086   0.6238611  -0.2638954  -0.2067993   0.1400927
  -0.2733900  -0.1140730  -0.4325086   0.4068245  -0.1319596  -0.4837737
  -0.0522310  -0.1983728  -0.0702314  -0.3296088  -0.1922202  -0.3494675
  -0.9280258   0.9071183  -0.6483384  -0.1232021  -0.0904919  -0.2383137
  -0.8163721  -0.0547273   0.5883635  -0.4730940   0.4556733   0.0255789
  -0.1131607  -0.2969136  -0.1589284  -0.3020716   0.6854789   0.2323999
  -0.1293923  -0.5798744  -0.1707400  -0.1661619  -0.0467809   0.1382636
  -0.1510048   0.3872175  -0.0315575  -0.8474459  -0.0001146  -0.9505579
   0.3061785  -0.0378905   0.0668539  -0.0639316  -0.0091803   0.3780969
   0.4567568   0.4896508  -0.0070100   0.2724767   0.1471329  -0.1033200
   0.7059328  -0.5009633  -0.1207915  -1.8021101   0.0072377   0.7485857
  -0.0111946   0.0089245  -0.2377387   0.2950596  -0.1956387  -0.3303672
  -0.2714812   0.0864618   0.5053909   0.0525741  -0.1653531  -0.1942843
   0.4580126  -0.0818997   0.4765018  -0.8137955   0.3091516  -0.0991040
  -0.1678736   0.0186950  -0.3003437  -0.1014126   0.3805874   0.3809303
   0.5768517   0.0350214  -0.6534712  -0.1343815   0.0409865  -0.2870453
   0.1532213  -0.2725443   0.5836854   1.3132230   0.0546396   0.4857141
   0.0097233   0.1602949   0.0924890   0.3990921   0.4648025  -0.4927100
  -0.4343589   0.1561476   0.3726601   0.1451743  -0.0436735   0.1691881
   0.2432834   0.0013887   0.0300559   0.1131856  -0.3001567   0.4645741
   0.0485709  -0.1576847  -0.1605138   0.0016733   0.2249271  -0.0505756
  -0.0425725  -0.2185552  -0.2997555   0.1089289   0.1341134  -0.2973964
  -0.6102659  -0.4544257  -0.2633799   0.7155743  -0.1493498  -0.8292061
   0.1561019   0.0480314   0.1566284   0.1705244   0.0682526   0.6222134
   0.1304005   0.1693946   0.3531023   0.0274493  -0.4134823   0.3661895
  -1.4382938  -0.6342779  -0.0314606   0.6139197  -0.4263656   0.4085932
  -0.1635500   0.0651232   0.1677794   0.4024728  -0.4560584  -0.2427813
  -0.4067445   0.1602602   0.6505297   0.3328948  -0.3002393   0.0709837
  -0.0875007   0.0542136   0.7688317   0.2365895   0.4669965  -0.7157838
  -0.0153672   0.2491377  -0.0741620  -0.0661363   0.4275517  -0.1214418
  -0.0426245   0.3437887  -0.0062728  -0.0453960   0.2029197   0.1160355
   0.3346639  -1.4295385  -0.1770391  -0.0410938  -1.2970476   0.1361749
  -0.2211066  -0.0523785   0.2369837  -0.3573696  -0.4982087   0.5487585
   0.2219877   1.3450546   0.0337085   0.1610887  -0.1197172   0.3182453
   0.5604372   0.0122315   0.1309586  -0.4473695   0.0596209   0.5004470
  -0.3556209  -0.1708677  -0.1177023  -0.6252662   1.0246134   0.4249835
   0.7976264  -0.2422646  -0.8484195  -0.1496220  -0.1085839  -0.1912272
  -0.3614209   0.0390257  -0.0910722  -0.2309993  -0.0834699  -0.1076211
   0.1522694  -0.0967766  -0.2107934   0.9781779   0.1279129   0.4974947
  -0.2578508  -0.0014407  -0.0855835   0.1682899  -0.1652627  -0.0423531
   0.2211163   0.3179584   0.3244375   0.2104857  -0.5886264  -0.7547586
   0.0520571  -0.2603189   0.1030783  -0.7471048  -0.4404941   0.0488846
   0.6885490   0.7124155   0.0740616  -0.1907975   0.1478242  -0.1185095
   0.3545532   0.0271570  -0.8576925  -0.7362036  -0.2549339  -0.3047948
   0.0771586   0.0980082  -0.0986212  -0.0915739  -0.3100081   0.7471930
  -0.7209862   0.6519852   0.3203562  -0.0560759   0.2073262   0.0192107
  -0.2066596  -0.5113671   0.6596141  -0.6644250   0.2362921   1.1010305
   0.0771018  -0.0338572  -0.0925888  -0.8214668   0.7346338  -0.1065216
   0.2445542   0.4328755   1.0019112  -0.0283677  -0.1023593  -0.0255866
   0.7677823  -0.9523737   1.3793799  -0.2278318  -0.8654895  -1.1782597
  -0.0978742   0.1910939  -0.0282916   0.0614590   1.5750725  -0.5243236
  -0.2180819  -0.1124733   0.4778155   0.2859519   0.0019763  -0.1111785
   0.1847794  -1.3489438  -0.4728795   1.4968258  -0.2618720   1.0379023
   0.1740405   0.1982011  -0.0411889  -0.7043092  -1.1131777   0.2639800
   0.7610605  -0.7884831  -0.8039499   0.0337299   0.1382409   0.1282619
  -0.3280584  -0.2549835   0.7625023   0.0779350   0.2729253   0.0637776
  -0.3489664   0.2502251  -0.0765570  -0.1953560  -0.4061509   0.0156863
   0.2684409   0.8226375   0.2070586   0.1627874  -0.1206247   0.1131339
   1.7135319  -0.3792160   0.4622084  -0.2946668   0.9319166   1.1612541
   0.1801917   0.3317995   0.1903637   0.0999631   0.7645975  -0.1274627
   0.5024933   0.2913833   0.1416259   0.0496047   0.3121499  -0.4063613
   0.6975919   0.8082843  -0.5409096  -0.0057810   0.3640327  -0.5754439
   0.0046650  -0.0259870  -0.0861339  -0.9887767   0.1359033   0.3234168
   0.4534359   1.7643834  -0.0681395   0.0683091  -0.1021837  -0.6486307
   0.8943642   0.3539214   0.4496911   0.7225874  -0.1181609   0.2073171
  -0.2613288  -0.0878788   0.0914672  -0.4886130   0.1931290  -1.4487898
  -1.0260670  -0.0071466  -0.9834347   0.0974905   0.2189505   0.2098595
   0.0145508   0.6189280  -0.7325179   0.4555786   0.2885040   0.1178427
  -0.2566483  -0.4002554  -0.0910485  -0.5914580  -0.6104396   0.1605670
  -0.4432984  -1.1374847  -0.7822282   0.1090520   0.1923159   0.5071855
  -0.8569568  -0.1912611  -0.1509669   1.2135269   1.0168431   0.5429212
   0.1342676  -0.1251696   0.0748624   0.1860371  -0.5325062  -0.2671297
  -0.0380506  -0.1916957  -0.0941172  -0.2954266  -0.2523247  -0.0381274
  -0.8427925   0.4031397   0.6944369  -0.6618828  -0.0573277  -0.5779603
  -0.3234139   0.0035901  -0.3829624  -0.4983507  -0.5892271  -0.1952588
   0.2368021   0.4351211   0.2751813   0.0758949  -0.2301645   0.1483196
  -0.1753492   0.2375599  -0.1470931  -0.1085097   0.3685674   0.8116831
   0.1310253   0.1938248  -0.1304920   0.0204113   0.3456625  -0.1940695
  -1.0362771   1.7946956  -1.2825575   0.1387721   0.0272981   0.1336207
   0.4939723   0.2946589   0.0080001  -0.1993226   0.3249314   0.3107125
   0.2004545  -0.5223874   0.1732882   0.6173949   0.1391639   0.0490611
  -0.1414008   0.6269920   0.1963926   0.1055015   0.3262817  -0.1177968
   0.5851313   0.6937516  -0.2407164   0.4380944   0.5751753  -0.9032609
  -0.0594053   0.0196132   0.2097392  -0.1016704  -0.1334361   0.6208353
   0.3187695   0.7157916  -0.1394047   0.3854084   0.2430026   0.0785683
   0.2525523  -0.6683631  -0.2455328  -0.2254917   0.3202153  -0.0199074
   0.1781831  -0.0274102   0.0971479   0.0529351   0.0972163   0.4189881
  -0.0493646   0.3310153  -0.1177826  -0.0240193   0.1573220  -0.2483922
  -0.4985996   0.7141661  -0.2478741   0.0119637  -0.2155267  -0.2761845
  -0.0356174  -0.3942621   0.0165246   0.1155670  -0.1462160   0.8684204
  -0.3205542  -0.3014207   1.6493370  -0.2892163  -0.1227324  -0.1228207
  -0.0584879  -0.5781802   0.4052559  -0.6942365  -0.0592811  -0.2975567
  -0.1286927   0.4679008   0.0412251   0.3947713   0.4005170   0.1340853
  -0.1524717   0.5521336   0.1073419   0.2166120   0.0671275   0.2193768
   0.2046581   0.5053871   1.0233246   0.6967166   0.4360106   0.8355827
   0.0496517  -0.3048178   0.0690451   0.4821479   0.5745127   0.4326626
  -0.1075588   0.1736200   0.1619152  -0.4159091   0.2341497   0.0941738
   0.1167191   0.7359659  -0.3943341  -0.6954790   0.0213532   0.3014814
   0.1681120   0.0192051   0.0028166  -0.2094929  -0.3634710   0.4133762
   0.7861920   0.1060762   0.6339154  -0.0981275  -0.0634638   0.2054351
  -0.1433899   0.7842894   1.0336782   0.2478489  -0.4247319  -0.0388435
  -0.1828597   0.2126858   0.3879005  -0.1481090   0.3847336   1.1595971
  -0.2831440  -0.3994759   0.2439474   0.1435235  -0.0801188  -0.2220851
   0.4824027   0.3804296  -0.0140681   0.0492467   0.1313274   0.0465017
  -0.1176954  -0.0247890  -0.2312371   0.0410559   0.2261822  -0.1675718
   0.5235065   0.6618732  -0.6315859  -0.1580495  -0.4518058   0.0117745
  -0.3609124  -0.3933226  -0.8429471  -0.0567552  -0.3649996   0.1294003
  -0.1847708   0.2683389  -0.2748635  -0.6903218   0.0207995   0.5786238
   0.2037035   0.3674014  -0.6164409  -0.0681551  -0.1122857  -0.0360221
  -0.3310172  -0.1550656  -0.1545831   0.6266721   0.2421218  -0.3099454
  -0.0822580  -0.2520547  -0.0861696  -0.7169558   0.3239088  -0.6101221
  -0.1919393   0.3089250  -0.8386939   0.0796573   0.0643182  -0.1108438
   0.0063333  -0.8859497  -0.9735297   0.3899596  -0.5678863   0.9805521
  -0.1390113  -0.1062939   0.1767709   0.6264935  -0.3743955  -0.0703699
   1.0647620  -0.2623773  -0.4863424   0.3502736   0.1019711  -0.4753136
  -0.3495577   0.1315149   0.7274175  -0.5836524   0.0505354   0.4389291
  -0.0333813   0.1527362   0.1781745   0.7252578   0.6867392  -0.4119548
  -0.4424864   0.1627743  -0.5388190  -0.0686687  -0.3540756   0.1723747
  -0.0099220  -0.3705615  -0.0203061  -0.6904022   0.0269830   0.4713987
  -0.2169639   0.1619537   0.0794686  -0.3012382   1.2454871   0.0937633
  -0.7732207  -0.3715029   0.5083681  -0.2216065   0.1946294  -0.1133684
  -0.0704409   0.1234469   0.5944050   0.1246667   0.3481663  -0.0093889
   0.0433416   0.1967681   0.2384359   0.8411302  -0.7975591   0.3757153
  -1.2994925   1.9933485  -0.1282824  -0.1860842  -0.1516846   0.1423722
  -0.6208156  -0.1516511   0.3777000   0.3383252   0.4257629   0.6719665
   0.2234130  -0.2172188  -0.0274211  -0.4266550   0.3193897   0.5607813
   0.3001335  -0.5409233   0.5760423  -0.0635471  -0.0728124  -0.3708557
   0.6609164   1.4254445   0.2106664  -0.0461641  -0.0130207   0.9825225
   0.0367770  -0.1079698   0.1882797   0.0771109  -0.5919790   0.4248448
  -0.0728798   0.7698335  -0.2968075  -0.1231785  -0.0468486   0.0954390
  -0.2089527   0.6064969   0.6723741  -0.2862192   0.1831246   0.6437798
  -0.3899164  -0.0231693  -0.3769804  -0.2682378  -0.3834977  -0.0278123
  -0.1535254  -0.6713669   0.0112457   0.0615681  -0.1149324   0.0686176
   0.2851149  -0.3434529   0.6508259   0.3036359  -0.1074669  -0.3897831
   0.4396835   0.0422633  -0.1315076   0.4071634  -0.0897038   0.0886228
   0.2693241   0.5620134   0.5342089  -0.2251843   0.0974442  -0.0865331
  -0.2693080  -0.2843783  -0.1491089  -0.0984542  -0.0051304   0.2782945
   0.0884055   0.3195373   0.0423886  -0.0451084   0.3588827  -0.1341399
  -0.1784336   0.6735889   1.2589583  -0.2259254  -0.2895731  -0.1798021
  -0.0782134  -0.3611447  -0.2376732  -0.1105578  -0.0440556  -0.4847982
  -0.2690951   0.1009002   0.0606685  -0.3503600  -0.0968639  -0.9056609
  -0.5331131   0.7183592   0.3458379   0.2660810   0.0274821  -0.0878232
   0.3312989  -0.5269918  -0.6583621  -0.0541032   1.0361571  -0.3299112
  -0.0337308  -0.4529775  -0.1495869  -0.3720868  -2.1285260  -0.3273575
  -1.4313892   1.6182573   0.0290392  -0.0045415   0.0262155  -0.1968962
   0.2133399   0.1544405  -0.3457191   0.3883847  -1.1783943   0.2354661
   0.0602340  -0.0568547   0.0939111   0.1358080   0.2974510  -0.0465493
   0.1925681  -0.3205128   0.1228106  -0.1195467   0.1175349   0.0188610
   0.2443747   0.7995168   0.3486515   0.0667053   0.1214002  -0.7648970
  -0.3435717  -0.0168770  -0.2374540   0.1212024  -0.4465262  -1.0776722
  -1.2340376   0.6603472   0.7233716   0.0674075  -0.0336540   0.1085726
  -0.2579534   1.0223250   0.9533308  -0.6419986  -0.7914363  -0.3388857
   0.1963104   0.0506543   0.1573665  -0.2323690   0.2332776   1.0325360
   0.5760082   0.3621825  -0.3624966  -0.4609707   0.3965337  -0.2250431
   1.1744305   0.0040032  -1.3708263   1.4296236  -0.1664653   0.0018608
   0.1216464  -0.3259591   0.1399329  -0.1221346   0.8435459   0.5781401
   0.2039563  -0.8184789  -0.0687038  -0.2239709  -0.0419863   0.2005534
   0.1224959   0.5183950  -0.7225521  -0.5822400  -0.2552221  -0.2880222
   0.0867868   0.1155181   0.0148402   0.0639048   0.3208833  -0.4489154
   0.1571977   0.1226230  -0.0734286  -0.1814100   0.0138558   0.3422625
   0.5792909   0.9447904   0.0614092  -0.1655677  -0.3549110   0.4014447
  -0.4265726   0.3899916   0.0792727   0.4389077   0.3802477   0.6325569
  -0.2016254  -0.1140041  -0.4808983   0.1203528   0.0125546  -0.0961208
   0.8611659   0.1902191  -0.4795580   0.3823072   0.2110894  -0.0487520
  -0.0782384  -0.0926214  -0.3926299   0.2205172  -0.0183080  -0.2001698
  -0.4336089   0.3340104  -0.5239459   0.1047551   0.1083109   0.0910741
  -0.0179041   0.8875341  -0.9187142   0.0865134   0.6273345   0.6857730
   0.0764175  -0.1745083   0.2205512   0.2467200  -0.7032198   0.0675768
   0.1216155   0.1925923  -0.2314086  -0.0738511   0.5000862   0.1915038
  -0.0476790  -0.1744876  -1.0696226   0.9260989   0.6168997   0.1132884
   0.1510588   0.0050361  -0.0783985   0.9668584   0.0482675   0.1797886
  -0.2795654  -0.0681685  -0.2127123   0.0927278   0.0664662  -0.1193476
   0.4536746  -0.1765537   0.4872776   1.7580300   0.6084023  -0.3776395
  -0.1064880   0.1294507   0.1415128   0.5719730  -0.2954529  -0.6130158
  -0.4203910   0.0751462   0.2537005   0.1536073  -0.1432683   0.0187768
  -0.0570932   0.1088552   0.3216471  -0.0387101  -0.0849382  -0.5549310
  -0.4398019   0.1882099  -0.1199769  -0.7326431  -0.2151343   0.6427678
  -0.0788375   0.4814801  -0.5233986  -0.4243348   0.0983156  -0.0472660
   0.3905579  -0.8711545   0.5263984   0.8059643  -0.7570183  -0.7886504
   0.3221681   0.2734145  -0.3075677   0.3285446  -0.2693089  -0.3514409
   0.2447760   0.4291646  -0.3812474  -0.0019024  -0.1781051  -0.0446814
  -0.6221276  -0.4259622   0.8326139   0.5906841   0.2017830   0.5264074
  -0.1257727   0.0323349   0.1262608  -0.1482111   1.3141752   0.7478697
  -0.1400645  -1.2491909  -0.5883170  -0.0730848  -0.0955420  -0.6348399
  -0.1067711  -0.2693445   0.1238019  -0.2963326  -0.4392491  -0.4558672
   0.3599187   0.3402956   0.1984752  -0.0020465   0.1931147  -0.2630188
  -0.3113702   0.0933006  -0.0020756  -0.1486242  -0.1793299   0.1045336
  -0.2854745   0.0766642   0.6989383  -0.0218216  -0.7718317  -0.8571321
  -0.2334159  -0.0771854   0.1289665  -0.3130301  -0.0945461   0.1380605
   0.1397628  -0.2613799   0.1411304  -0.2256267   0.1767129   0.0435401
   0.0172558   0.7653228   0.1449371  -0.1800784   1.0787751   0.3801475
   0.1928483   0.1563862   0.2276510   0.2142901   0.4191602  -0.0984450
   0.7798538  -0.5043710   0.4341054  -0.2355178  -0.3652434  -0.3288468
   0.1381660  -0.2390232  -0.7331278  -0.2857549  -0.0725634  -0.2473749
   0.0215873  -0.1966147   0.0050386  -0.3653074  -0.2580799   0.1414253
   0.3188117   0.3116205   0.2454662   0.0040871  -0.1491741   0.0239854
   0.1783196  -0.5099437  -0.0516087   0.4916876  -0.9616741   0.3973376
  -0.2114642   0.4090595   0.2066529  -0.1512049   1.8235368   0.0131782
   0.1206112  -0.8462268  -0.3541374  -0.0380034  -0.1011621  -0.0108328
  -0.5408271  -0.6034501  -0.3591011  -0.3348503  -0.1769990   1.4308111
   0.1324045  -0.0054627  -0.0851494  -0.1272633  -0.2206849  -0.1290567
  -0.5312027   1.1019420  -1.2582755   0.1904982  -0.0092417   0.0624506
   0.0665901   0.0550416   0.2036010   0.2294773  -0.5990612  -0.0396170
  -0.1794625   0.3945764  -0.0561888  -0.2573662  -0.7600790   0.0315031
  -0.3755676   0.9816079   0.6939983   0.0474719   0.1322123  -0.0198280
  -0.0303396  -0.6168026   0.0434176  -0.0639543  -0.9430268   0.0768694
   0.0770629  -0.1636582  -0.2467207   0.3491754  -0.5438152  -0.2470722
  -0.1545672  -0.9766473  -0.5373773  -0.3682266   0.0030185   0.0333548
   0.6388065  -0.4071439   1.0905029   1.2106593  -0.2563771  -0.2649341
  -0.1803337  -0.2898686   0.2014861  -0.0575165   0.2203280   0.1875366
  -0.2038312   0.6260662   0.4327487  -0.1578725  -0.0593904   0.0598793
  -0.2493646  -0.2967744  -0.0073982   0.0602745  -0.1010418   0.0110552
  -0.0885927   0.3116816   0.2188258   0.3725749   0.3742395  -1.3492488
  -0.1949466   0.2806323  -0.0219124   0.0135442  -0.4594078  -0.4119269
   0.1131043  -0.4776969  -0.9674351  -0.0371599   0.2362017  -0.2481923
  -0.1775025  -0.1841179  -0.1134973  -0.2522032   0.1716378   0.2144610
  -0.1005512  -0.4522372  -0.4018912   0.1153354  -0.0186358   0.1696252
  -1.5776264   0.3188741  -0.0191339   0.5922307  -0.8499349   1.1779676
  -0.0711963   0.0917323   0.3747445   0.5740238  -0.0606657   0.6000065
   0.3003645  -0.4171404  -0.0838121   0.0792494  -0.0596588  -0.1205315
   0.0816670  -0.0656324  -0.4385263   0.6853113  -0.3422436   0.1784401
   0.1700204   0.2314073   0.1350197  -0.3415759   0.2479839  -0.1855331
   0.2574959   0.3320450  -0.1027184  -0.2004169  -0.0535088   0.1552878
   0.3788380   1.4717669   0.0486178   0.0158435   0.1677780  -0.1574543
  -0.0548803  -0.3558620  -0.1129246   0.2977708  -0.5682165   0.2451667
  -0.3224915   0.0857644   0.6706773   0.5148538  -0.0727507   0.3336024
   0.1697866  -1.1443228   0.2834941   0.4879326   0.2514745  -0.6389613
  -0.0228777   0.1851582   0.1428424  -0.2646350   0.2566167   0.4068948
  -0.7986595  -0.1859416   0.8416814   0.0107007  -0.1564856   0.2364828
   0.1531175  -0.1305358  -0.2615060  -0.1989665   0.2166733   0.2219355
   0.1002936   0.1910530   0.1424620   0.4243689  -0.0512736   0.8702823
  -0.0153032   0.0676914  -0.1072378   0.2162691   0.1409493  -0.1247277
   0.3192638  -0.5164952  -0.5945067   0.5350083   0.4886251  -0.1594892
  -0.5030810  -0.0530373   0.0774455  -0.5242893   1.1143417   0.4715807
   0.0756505  -0.2418697  -0.7232956   0.1826928  -0.0712492  -0.0873347
  -0.4279924  -0.5979341  -0.5642329  -0.4550238  -0.9394701  -0.4641102
   0.0088141  -0.1230558  -0.0114565   0.1061788  -0.5117323   0.9244089
  -0.1152653  -0.0858761  -0.6265631  -0.0250907  -0.4757029   0.1699163
   0.4145950   1.5321744   0.3936217  -0.7315949  -2.3776923  -0.0311384
  -0.3509052   0.1931276  -0.2634472  -0.6618180  -0.2164857  -0.3660445
  -0.5714152  -0.3750175  -1.6208842   0.3805620   0.0039340   0.0330697
  -0.5670800  -0.1413031  -0.2763365   0.2925469   0.0696819   0.4586117
  -0.1244236   0.1951447   0.4911698  -1.0947925  -0.1234724  -0.4524922
  -0.0973607   0.8947892   0.1194276  -0.1088273   0.2639910  -0.5041544
   0.3900722   0.2396038   1.0931827  -0.5771894   0.5559478  -1.2009578
  -0.2199257  -0.0917203   0.0520133  -0.3053030   0.4774254  -0.0796887
  -0.9781401  -0.8352783  -0.6363698   0.1370431  -0.0378432   0.1218409
  -0.5638278  -0.0754790   0.0034553  -0.9790628  -0.0842859  -0.8263464
  -0.0737188  -0.1059865  -0.1381775  -0.4117293  -0.0214552  -0.9631512
   0.8916620  -0.4341855   2.1458410   0.2053649   0.1715414   0.0752856
   0.0314650   0.0278465   0.4568310  -1.1464475  -0.1308917  -0.1940686
   0.0694055  -0.0522688   0.1375037   1.0458665  -0.7779752  -0.9645286
  -1.3550371  -0.5318797   0.3731561   0.1180463  -0.0439905   0.2345794
   0.4986995  -0.8196883   0.2249537   0.4007636   0.1888564   1.0435293
  -0.2736797  -0.0965557   0.0622482  -0.1527737  -0.1734923  -0.0062328
  -0.5981179   0.0399643   0.9841096  -0.0116166  -0.1489086  -0.0906220
   0.6394656  -0.6245751  -0.6439589  -0.4895876  -0.6569207  -0.2242805
  -0.0603817  -0.0169979  -0.0533315   0.3307288  -0.2990530   0.2174536
   1.3618089  -0.4589308  -0.1651191   0.2516860  -0.1902924   0.2836985
   0.2088226  -0.4858387  -1.5348600  -0.3588605  -0.6013282  -1.8879220
  -0.0550135   0.2583937   0.2412737  -0.0704813   1.0942068   0.1342366
   0.7993328   0.4449867  -0.1308693  -0.0247206   0.1314326   0.3222487
  -0.5767521   0.4357756   0.5393096   0.4168781  -0.4653258  -0.0091725
   0.0552880  -0.2052817  -0.1317770  -0.1879394   0.0057451  -0.1634535
   0.3362927  -0.4495253  -0.0949745  -0.0797198  -0.1216150   0.3358728
  -0.5868690  -0.3392465  -0.0731220   0.4116942  -0.2987516  -0.3088966
   0.0321718   0.1006990  -0.0876583  -1.2118377   0.2877546  -0.7073001
  -0.9264466  -0.2286710   0.6762080   0.0507263  -0.1024718  -0.0551563
   0.1537006  -0.0837511  -0.0777301   0.0761540  -0.2415833  -0.4140377
   0.3128507   0.0206964  -0.0452916  -0.2679756   0.4311660   0.7060361
  -0.2929346  -0.1162349   0.3175665   0.0799481   0.2760374  -0.1571802
  -1.0624273   1.0544643   0.4275571   0.6017102  -0.0117764  -0.4936253
   0.0085338   0.1264189  -0.0751993  -0.4171006   0.6800441  -0.6443684
   1.2557016  -1.0942922   0.7019172   0.1587233  -0.0632545  -0.0459853
  -0.1132951   1.3937620   0.3252155  -0.2713883  -0.0277248  -0.5250660
   0.0101354  -0.1257105  -0.0486160   0.2218755  -0.1153666   0.2341765
  -0.5215030  -0.5143824  -0.2102002   0.1996347   0.0080658  -0.3730562
  -0.3232089  -0.8552657  -0.1498891  -0.5450566  -0.3922915  -0.2695074
  -0.2458722   0.0345356   0.0364637   0.5927783   0.8173902  -0.1387282
   0.1985740   0.0215738   0.4683321  -0.0450737   0.1206618   0.0279320
   0.7445344   0.2453728  -0.1972645   0.7712396   0.5339686  -0.5491845
   0.0960189   0.0675284   0.2391681   0.3481627  -0.2630006   0.4687892
   0.3247272  -0.0622055   0.3623723   0.0991038   0.2217567  -0.0330211
  -0.3065917  -0.2913531  -0.4565323   0.4234787   0.0276322   0.2704531
  -0.0955749  -0.1301238   0.1041529  -0.9932611  -0.2900724   0.1106096
  -0.4929177  -0.1093801   0.0006053  -0.2854597  -0.1789834   0.1349725
  -0.5230380  -0.1996744   0.2043043  -0.2103880  -0.6105800  -0.1901225
  -0.0431148  -0.0045940  -0.2325125  -0.3563066  -0.1249664  -0.1791900
   0.4278792  -0.5678459  -0.4129555   0.1568121  -0.2418193   0.2387470
   0.2360809  -0.0618264  -0.3256505  -0.0967236   0.6842668  -0.7638019
   0.4258337  -0.0349176   0.1117951  -0.1711146  -0.6983548   0.3766543
   0.2449136   0.6274489   0.3693453   0.0468699  -0.0095458  -0.0581175
   0.0264728   0.8474594  -0.1220584  -0.7773595  -0.2475696  -0.1288917
  -0.1654779  -0.0337832   0.1666375   0.2814127  -0.2223260  -0.4139265
   0.0278598  -0.0517765   0.2805195  -0.3033280  -0.0608907   0.2060141
  -0.0660906  -0.2456850   0.4550262  -0.2407009  -0.1892249   0.1357227
  -0.1429579  -0.1514629   0.1186701  -1.8479398   0.4198403   0.0955657
   0.8919071   0.2301450  -0.2524161   0.0079184  -0.2033687   0.0941940
  -0.2645934  -0.1757978   0.2858263   0.3094936   0.1557751   0.3337028
  -0.5078886   0.0003812  -0.2286288   1.4382965   0.1011672   0.1059466
   0.0311941  -0.3100068   0.3451530   0.1143600   0.2440596  -0.0178428
  -0.3547336  -0.3041512   0.2933436   0.3181933   0.0244475  -0.3095044
  -0.0149579   0.1113430   0.1122440  -0.2587601   0.2381710   1.0741300
   0.1146367   0.4918485   0.3001314  -0.3539320  -0.1916500   0.2349901
   0.1864519  -1.1645451  -0.3446366  -0.6317581   0.1296339   0.4192695
  -0.0517018   0.0483941  -0.1230977  -0.6435384  -0.0115042   0.2549750
   0.5623813   0.8299288   1.4975190   0.0483771   0.1578457  -0.0558598
   0.1764479  -0.1025034  -0.3732598   0.2917643  -0.4259257  -0.5118712
  -0.0274508   0.0923869   0.0417439   0.5864029   0.5011902  -0.4123160
  -0.2503708  -0.4850041  -0.3117844  -0.3471898  -0.0684669  -0.3437999
   0.2141940  -0.1443682  -1.0230130  -0.9543792  -0.0486939   0.4437712
  -0.1828753   0.1520328   0.0018869   0.2778701   0.1379315  -0.1154852
   0.2759546  -0.0852258  -0.2797783  -0.0635649   0.0850127   0.0501821
   0.0591063   0.5516930  -0.9587009  -0.1146286   0.2523896  -0.1445893
   0.1248785   0.0720282  -0.1987948  -0.1804291   0.1706310   0.0015108
  -0.0405458  -0.0052367  -0.6859239   0.0327812   0.4115868  -0.0001853
   0.0874927   0.2037927  -0.6370010   1.3542162   0.1533859  -0.2034969
   0.3262733   0.4380195   0.1502394   1.0864220  -0.2446430  -0.4098697
   0.6193375  -0.1660633   0.6065292   0.2273599   0.0332994   0.2476966
   0.1517955  -0.5036279   0.2278826   0.3365510   0.2168806   0.1999008
  -0.1855500  -0.0944278  -0.2001351  -0.3779770  -0.1995158  -1.1439906
  -1.6615246   1.3606895  -0.8023309   0.0912102  -0.1273314   0.0059179
   0.1053379  -0.2370938  -0.1401855   0.2569528  -0.4530939   0.0807756
  -0.0515300  -0.1275083  -0.0479975   0.1082227  -0.2697167  -0.0589043
   0.8698971   0.3766384   0.6552260   0.3210593  -0.0713553   0.0760869
  -0.4502492   0.1738363   0.1524911  -0.4604500   0.0437160   0.3257110
   0.1968436   0.0025304  -0.0655502  -0.0488025   0.1233494  -0.4151725
   0.6842667   0.8078560   1.4950738   0.0825551  -0.1708077  -0.1796037
   0.7927360  -0.3629727   0.0486910   0.7391370   0.0150223  -0.4624872
  -0.1085939   0.2910898   0.2306939  -1.3304019   0.5733440   0.4250271
  -0.8756769   0.8978381   0.2606105   0.1239346  -0.2084888   0.2308855
   0.1681310  -0.4311958   0.7686510  -0.3090064   0.2567066   0.5298153
   0.1562365   0.0697816  -0.0246320   0.0740438   0.2209890  -0.0242553
  -0.0251605   0.2575205  -0.2662624  -0.0422740  -0.0459500  -0.1464299
   0.1780488   0.0653725   0.7729561   0.6980358  -0.7578961   0.6886293
  -0.0369933   0.2099651   0.0428021  -0.5236195   0.1686390   1.0823712
  -0.0053998  -0.2649978  -0.2999352   0.0930861   0.2590422   0.2688186
  -0.1367437   0.1867435  -0.8596830   0.0961500   0.5449831  -0.1598614
   0.2607013  -0.3075809   0.2937513   0.5939408  -0.5549273   0.1493409
  -0.7967477   0.0987806  -0.3041884   0.0844948  -0.2455164   0.0972879
  -1.0572341  -1.2370693   1.1195684   0.9479057   0.2833439   0.5349958
  -0.0774029   0.3013420  -0.1406274  -1.4599526   0.4958040  -0.1002713
   0.9890670   0.5588967  -0.0264227   0.0523535  -0.5346114   0.3373072
   0.0402919   0.2312923   0.6004091   0.1770887  -0.7768592  -0.2436012
  -0.0777848  -0.0602715   0.1792836  -1.1704884   0.2314411  -0.2263962
   0.5335710  -0.1288418   0.6478751   0.2970330  -0.0066970  -0.0120944
   0.8831409   0.2041920  -1.9667078   0.2775381  -0.2560344   0.3344325
  -0.2090220  -0.2001302  -0.2247491   0.5889412  -0.0900670   0.1622001
  -0.5531660   0.5062714   1.0303441  -0.3091682   0.1527685  -0.0040468
   0.5759960  -0.4724568   0.3498473  -0.6755544   0.1093773  -0.4975046
  -0.2979112  -0.0989043  -0.1155693  -0.7987467  -0.0904898  -0.6347216
  -0.0968805   0.7447189   0.1502828  -0.2095883  -0.1113471  -0.3374056
  -0.1486949  -0.7398625  -0.5119741  -0.3585874   0.6011621   0.0123180
  -0.2195971   0.0254324  -0.4113418   0.1185899  -0.4083954  -0.4017060
  -0.5062245  -0.0264948  -0.1018758  -0.0381773   0.1037905   0.0239363
  -0.8906407   0.6389451   0.3300923  -0.2811876   0.2956995   0.0685131
   0.1015990  -0.1201054  -0.0986224  -0.4409479  -0.5122784   0.1130919
  -0.1632640   0.4558864  -0.4919879  -0.3694827  -0.1627147  -0.0694643
  -0.0116773   0.0146291   0.1012550  -0.3600678  -0.0772412  -0.0365266
   0.0064795  -0.0347209  -0.1362599  -0.1119792   0.0880914  -0.2684744
   0.3822387   0.7106510  -0.5051877  -0.1711152  -0.0607468  -0.2390039
  -0.2576348  -0.3695535   0.0118990   0.0642491   0.4905940  -0.3709973
   0.0989014  -0.1003499  -0.1275295  -0.2611117   0.2038282   0.1821718
  -0.5976826   0.5152728   0.5036829  -0.0005796  -0.0798960   0.1603252
  -0.5003110  -0.8231308   0.4142537   0.2051842  -0.5446874   0.1148204
  -0.1695451   0.0510779  -0.4011010   0.0378043  -0.1811947  -0.7542636
  -0.9000097   0.3248913  -0.6355302   0.1265933  -0.0310266  -0.0339093
  -1.0063888  -0.1662446  -0.1324310  -0.1349081  -0.0927252  -0.1621556
  -0.0072223  -0.1059734  -0.1238033   0.2258137  -0.7420270  -0.2063398
   0.5348795   0.1791095   0.3037664   0.2839576  -0.0187571   0.0612637
   0.8327131  -1.4244982   0.0540508  -0.1664764   0.4952318   0.2155909
   0.4919542  -0.1257683   0.0630078   0.9184688  -0.1498659   0.8090872
   0.0148574   0.8813117   0.4939173  -0.1434430   0.3257276  -0.1217276
  -1.5962484  -0.7314912  -0.6282495  -0.9581751  -0.3058439  -0.5777615
  -0.2299977  -0.1003997   0.0034651  -0.7227858  -0.5697429   0.0173484
   1.0157373  -0.7583283   0.4614735   0.0385937  -0.0174028   0.0966278
  -0.5620079  -0.3316151  -0.0742812   0.1313066   0.4982677  -0.3057602
  -0.1654832  -0.2359140   0.3057352   0.6504587  -0.3256748  -0.7078036
   0.0525430  -0.3892424  -0.1084410   0.0739251  -0.2193111   0.2709467
  -0.1818488  -0.0656274   0.6115937  -0.3308001   0.2256839  -0.3226607
   0.2173865  -0.0781741  -0.1149413   0.2350094  -0.3982808   0.3412157
   0.0328719  -0.5684559   0.7190288  -0.0100217   0.4956269  -0.1376114
   0.1297970   1.1931266  -0.2103132   0.0407607   0.4950651   0.4979697
   0.1338100  -0.1819447   0.0222425  -0.1028155  -0.5480990  -0.6221415
  -0.0011523  -0.1299801   0.4177214  -0.5312605   0.0903270  -0.2303630
  -0.6515913   0.5610638   0.3530669  -0.4401413  -0.0041782  -0.3738961
  -0.3594715  -0.0512824  -0.0097324  -0.4945609   0.2214897  -0.6207084
  -0.5451107  -0.5643256  -0.0142131   0.2080060   0.0758934   0.0289760
  -1.4352965   0.7851834   0.0253189  -1.1019797   0.0279790  -0.7587778
  -0.3495412  -0.0220625   0.1667417  -0.5038453  -0.2427260  -0.3689531
  -0.9446348  -0.2018994  -0.6738563  -0.1753706  -0.2440664   0.1317801
   0.3684248  -1.1516290   0.8789653  -0.3251897   0.1744853  -0.2588040
   0.1857139   0.1588388  -0.0369825  -0.5224765   1.3985465   0.0620621
   1.5509068   0.1857715   0.3474030   0.0254313  -0.1162017   0.0337399
   0.7904074  -1.0868418   0.5670454  -0.0426732   0.6905745  -0.7339236
  -0.1195263  -0.1437623   0.0872666   0.6952381  -0.1378962   0.3125834
  -0.3108986  -0.4154552  -0.9181204  -0.0538944   0.0830463  -0.0406662
  -0.0171034  -0.4707357   0.3775601  -0.7173022   0.0896639  -0.1336390
   0.0720633  -0.0283891   0.1883175   0.7842990  -0.7660290  -0.1354036
  -0.4181126   0.2018547  -0.6850896  -0.0498379   0.1760466   0.0919893
  -0.3155962  -0.4380937   0.4852207  -0.4107148  -0.6310762   0.6476935
   0.0656227  -0.3624880   0.2635375   0.8921588  -1.1688802  -0.7172456
  -0.3656374   0.1258696   0.2694202  -0.0577215  -0.2284410  -0.2200766
  -0.6331520   0.1451671  -0.3973690   0.3035333  -0.0269162  -0.4617408
   0.0250197  -0.2408554  -0.2734642   0.1159381  -0.4869655  -0.3491608
   0.1032034   0.4868329  -0.3834816  -0.1598101  -0.1912309  -0.0189962
   0.3022921   0.6417042  -0.0469691  -0.1471594   0.8883053  -0.1007709
   0.2795942  -0.2117073   0.1142736   0.1098291   0.0240640  -0.2240778
  -0.3227097   0.3815029   0.2647885  -0.1978552  -0.0367042   0.2239020
  -0.1982000  -0.0405544   0.2219602  -0.1991430  -0.1154470   0.2253196
   0.0173676  -0.1021501   0.1661574   0.0481791  -0.3977495  -0.0594925
   0.0201134   0.0043460   0.0731893   0.0403158   0.1691181  -0.1315916
  -0.0945415   0.1931636  -0.5324562   0.0186780   0.1630849   0.8506535
  -0.0339623  -0.0651376  -0.0606318  -0.7653225   0.6323350  -0.1409170
   0.3933918  -1.1607377  -0.5217202   0.1474978   0.0530193  -0.0086368
   0.6948587   0.4881763  -1.0859022   0.3836363  -0.1148983   0.3915616
  -0.0697119   0.3457009   0.1785787  -0.3634159   0.4474783   0.0219929
   0.1477982   0.0574139   0.0054576   0.1389892  -0.0738612   0.1244743
   1.1760351   0.4996421   1.1978844  -0.0024224  -0.1348731   0.0192179
  -0.0868681   0.0232704   0.2807290  -0.2072924   0.1097689   0.3525697
   0.4951275  -0.2849565   0.2910681   0.0814918   0.1447889  -0.2670046
   0.5569294   0.1897958  -0.6329172  -0.2907419   0.1512904  -0.0203127
  -0.1634647   0.1842581  -0.0004380  -1.2704250   0.8652478   0.5762202
   0.1072430   0.3939461   0.0639200  -0.0048530  -0.4101826  -0.3528324
   0.8135142  -0.9493161   0.3100015   1.3687114  -0.6323389   0.5704772
  -0.1324021   0.0312216  -0.1181165   0.3360392  -0.2771339  -0.5711086
  -0.5739220  -0.7075334   0.1754605   0.1132394  -0.0202611  -0.4795128
  -0.0519682   0.5883633   1.2696140  -0.8648292  -0.7154015   0.1089938
  -0.1306105  -0.3367017  -0.1517076   0.8119441   0.0096847  -0.5325288
   0.2763942  -0.9603771   0.6745934   0.2682731  -0.2828530  -0.0745452
   0.3896492  -0.4464148   0.7278989   0.3691715   0.0368701   0.1276439
  -0.0449274  -0.0111514   0.0365412   0.1308080  -1.2356608  -0.1789718
   0.2790668   0.6379741   1.1309033   0.0010432  -0.1519105   0.2220917
  -0.1500453  -0.0861239   1.1259687   0.1603859  -0.1493413  -0.5976479
   0.0326104  -0.0883828  -0.0392386  -0.3534464  -0.4343868   0.6244142
  -0.2850626  -0.6999652   0.6937646  -0.0751311   0.1728949  -0.1138428
   0.2292079  -0.4535104  -0.1897860   0.0244088  -0.3667368  -0.6360558
   0.3274086   0.1197829  -0.1241148   0.3341839   0.2478335  -0.4743721
   0.3215296   0.0913553  -0.0361692   0.4289343  -0.1303030  -0.3555022
  -0.4706472   0.6032573   0.1001787   0.2178862   0.5489270   0.1250310
  -0.3212386   0.1391996  -0.1942026  -0.2081069   0.0628722  -0.0800212
  -0.6734574   0.2940607  -0.4214962  -0.0952816   0.0689626   0.1741034
  -0.8187373  -0.6776672   0.4591699  -0.6802956   0.0134943  -0.0589336
   0.1738853   0.1488519  -0.0910873  -0.4359853   0.2449713  -0.0050575
  -0.9500613   0.5123713   0.1403951   0.0483855   0.0554902   0.0177085
  -1.1562314   0.0524724   0.1114885   0.7307240  -1.0483877   1.4188160
  -0.0495844  -0.0999263  -0.3144291  -0.0708882   0.2712637  -0.2457756
  -1.1442513  -0.6724659   1.9742040   0.0247390   0.1454101   0.1208396
  -0.2638409  -0.2564639  -0.3994882   0.5662678  -0.3085130   0.5032791
  -0.5189134  -0.0107307  -0.2235085  -0.8943975   0.8133350  -0.2722397
   0.3353296  -0.7422893   0.3792426  -0.0815689  -0.1048224  -0.0329362
  -0.1691691   0.2061204  -0.3516367   0.3252922  -0.9695937   0.2865333
  -0.0977923  -0.0948815   0.0768873  -1.0565970   0.2982170  -1.0987988
   0.6862009  -0.0565711   0.9235577  -0.0073262   0.1131191  -0.1065344
  -0.0760434  -1.2731157  -0.1714366   1.2217694   0.2741452  -0.5363002
  -0.0039850   0.2888058  -0.3931973  -0.6533493  -0.6458783   0.7985503
  -0.0046875   0.1528569  -0.6799302   0.1020898   0.2294143   0.4895011
  -0.5492589  -0.7431533  -1.9954651  -0.3877937   2.0947877   0.1927548
   0.2360183   0.0557572   0.1062216   0.9195944  -0.2160336   0.3674719
   0.5557254  -0.3833426  -0.6505417  -0.0527313   0.1236531   0.3358971
  -0.4610428   0.0985796  -0.0917914  -0.2080113   0.7244582   0.5097835
  -0.3268554   0.1515594  -0.2824420  -0.5023855   1.2273704  -0.8284690
   0.8209455   0.2009985  -0.7190258   0.0957947  -0.0290020  -0.1734943
   0.3157448   0.4654795   0.4977937   0.0472049  -0.1459299   0.0596704
   0.1246639   0.1921891  -0.1503052  -0.2171386  -0.9827621   0.5280573
   0.0783133   0.2857371   0.1038772  -0.0971433   0.1990134   0.1535306
  -0.3819067  -0.2318021   0.3904890  -1.0519832   0.3615720  -0.1285673
  -0.0821152  -0.3759454  -0.2761572  -0.1325698  -0.3510252  -0.3983234
   0.4170969  -0.2931678  -0.0888191  -0.2105085   0.0174294  -0.1988450
   0.0629762   0.1657553  -0.9007869  -0.5643872  -0.0103420  -0.1980308
   0.1559255  -0.0314255  -0.0266507   0.8117418  -1.0083822  -0.6687708
  -0.2119350  -0.3358313   0.9362194  -0.1863738   0.2122714   0.1587350
  -0.7674179  -0.1656952   0.4481464  -1.0149791  -1.7859166   0.3857854
   0.0591702  -0.0703388   0.2710280  -0.4530728  -0.9423963   0.6682632
   0.1149822   0.5759804  -0.0707509  -0.3003593   0.2302028  -0.1597556
  -0.5457598   0.1986865   0.7782263   0.5661410   0.1616357  -0.2270456
  -0.0206140  -0.1318023   0.0190081  -0.2802603   0.8997506   0.5680469
  -0.4676159  -1.2578888   0.8987139  -0.0320978   0.1996835  -0.1466812
  -0.2648158   0.4560921  -0.6596236   0.3631899  -0.4665295   0.5279786
   0.0644931  -0.0764402   0.2037186  -0.9585261  -0.5609328  -0.3059225
   1.0713834   0.1947462   0.7658695   0.2026369  -0.1464361   0.1259300
   0.0537495   0.0635063   0.3691423   0.2426179   0.2053312  -0.1502945
  -0.0454598  -0.2731744  -0.1547654   0.0000819   0.6390393   0.1400971
  -0.0353494  -0.1106259  -0.1029117   0.4824634  -0.0820673  -0.1419113
  -0.4643012  -0.3777781  -0.2857003   0.7749053  -0.5408612   0.2687880
  -0.0654996   0.0057264   0.0804614   0.1300137  -0.0161028   0.1793965
  -0.6562563   1.0637933   0.2921370  -0.1339340   0.0673982   0.0803595
   0.2942002   0.6880046   0.5310292  -0.9301299   0.1837064  -0.7210388
  -0.0860521   0.1456552  -0.1353746   0.1759066  -0.0160256  -0.8052609
  -0.4983084  -0.4298651   0.0075240  -0.0611391   0.0809252  -0.0299765
   0.0955136   0.7430339  -0.1173703  -0.2183774   0.0861335  -0.0581760
  -0.2616906   0.0011465   0.1618448  -0.0260541  -0.2847299   0.2749499
   0.2874287   0.4104097   0.2503413  -0.0084541   0.2731148  -0.0773017
  -0.7913538  -0.5345408  -0.8752726   0.3826306   0.6339238   0.4858590
  -0.2740387  -0.2193487   0.1447637  -0.3505506  -0.7918078  -0.5331024
  -0.0671056   0.0436716   0.1785746  -0.0581552  -0.1145812  -0.0554533
   0.3845111   0.7450087  -0.2926806   0.6086940   1.4477871  -0.9113918
   0.0838911   0.1024675   0.1653239  -0.9907295  -1.2594512   1.4513640
   1.0080097   1.2272067  -1.0391075   0.2095993  -0.0656576   0.0653850
  -0.3141932  -0.5960058   0.1511856   0.0643503   0.0685560  -0.0483517
   0.4024082  -0.1049873   0.1584398   0.8488516   0.2506601   0.5435723
  -0.2338885   0.1773285   0.1919626  -0.1199583   0.2053592   0.0298401
  -0.5773075  -0.4541047  -0.0510396   0.6065560   0.7138734   0.1331136
   0.0642289  -0.0267125   0.1441726  -0.3232871   0.1189637   0.5488146
   0.8651034  -0.1288976  -0.4127999  -0.3833308   0.0864676   0.0037085
  -1.2569398   0.2184617  -0.8332489   0.1601363   0.2344825   0.8907136
   0.1976409  -0.1335826  -0.0017702   1.4077377  -0.6133354  -0.1897406
  -0.2521815   0.8619696   0.4578918  -0.0742628  -0.1447689   0.1074446
  -0.5727942  -0.0157372  -0.3125504   0.0917522  -0.0266967   0.0756563
   0.2261289   0.2024659  -0.1216082   0.1553066   0.3416275   1.3507782
  -0.1290382   0.8576653  -1.4405226  -0.0426069   0.4648001   0.0235309
   0.1634388   0.3553359  -0.4135861   0.6000518   0.0116940  -0.2093371
   0.2140153   0.1379306   0.1411721   0.2122475  -0.2762575   0.4167306
  -0.5332480  -0.2767293   0.6200498   0.1059506  -0.1080303   0.0126883
  -0.1852406   0.0336637   0.0970916  -0.6878463   0.7240162   1.0254916
  -0.0903503  -0.0517874  -0.0954978   0.0673992   0.6604347   1.2102867
   0.1645730  -0.2471757  -0.1074229   0.0163186   0.1261317   0.0615836
   0.1268665   0.2573924  -0.7297413  -0.0764869  -0.1862335   0.4074592
   0.1672672  -0.0665443   0.0161313   0.5240068  -0.1096348  -0.2816439
   0.5930511  -0.1275827  -0.3718893  -0.2092307   0.0776625   0.3752594
  -0.0468184   0.3841717   0.8227803   0.6860674  -0.5688432  -0.6678897
  -0.0446499  -0.0237962  -0.3377545  -0.9625551  -0.1228957  -0.2470486
  -0.8657733   0.4224107  -0.3420794  -0.1529531   0.0045073   0.0271477
  -0.6036454   1.2513123  -0.0711982  -0.9461896  -1.1280091   0.5718537
  -0.2386746   0.2361151   0.2747048   0.5679972   0.3880808  -0.1328266
   0.0920880  -0.1087277   0.5072948   0.0915955   0.0729711   0.0211950
  -0.5738580   0.6453002  -0.1517157  -0.2283753  -0.4379038   0.6615966
   0.2916054  -0.0151125   0.0244156  -0.0428751  -0.1979854   0.3206561
   0.7202380   0.9580230  -0.0978331  -0.2283891  -0.0490400  -0.0263715
   0.2869856   0.0979213   0.2341944   0.2000460   0.2489176  -0.0363545
  -0.0535939  -0.1322945  -0.2637900   0.2888066  -0.1940559  -0.3377350
   0.0642155  -0.2210867   0.2647139  -0.4710719   0.2413372   0.1390444
  -0.9679746   0.1880403  -0.0407493  -0.2119238   0.3475475   0.0552594
  -0.0876878  -0.0707264   0.1477027   0.6073032   0.6208518   0.0119651
   0.6879070   0.7901303   0.3656744  -0.1900623   0.2245373   0.2639687
   0.0116643  -0.1957488   0.3423596   0.4854774  -0.4386927   0.5101557
   0.0957067  -0.1322362  -0.0864706   0.1328448   0.0973454  -0.2733650
  -0.2879997  -0.0957445  -0.0766941   0.1742142  -0.2577993   0.0074343
  -0.0798671   0.4151263  -0.2123590  -0.4075553  -0.4412217   0.4751868
  -0.4700776   0.3134178   0.4121272   0.2593896   0.4310051   0.2701697
  -1.0654443   0.1797597  -1.2371184  -0.2139704   0.0886721  -0.2062875
  -0.6392101   0.5955058  -1.1841790   0.7548947   0.7393664  -0.3478483
  -0.1538624  -0.1050318   0.0882459  -0.2598692  -0.2577806  -0.5751957
  -0.7824669  -0.1793314   0.3660921   0.1402813   0.0475044   0.2562606
  -1.3161236   0.2803622   0.1134915  -0.1086930   0.9942893   0.4753415
  -0.0136036  -0.0625270   0.0727254  -0.3386160  -0.9944731   1.4186634
   0.5735251  -0.5156820  -0.0214219  -0.1870587   0.1600200  -0.1566807
  -0.5790142   0.5384456  -0.8888009   0.6868832   0.1131001  -0.0153458
   0.3049367   0.0444862  -0.0444678   0.5636206  -0.7153691  -0.9735106
  -0.4729488   0.2321619  -1.9399598   0.0811536  -0.1455151  -0.2593978
   0.8828370  -1.0705062  -0.0652628   0.1522355   0.1414295  -0.8084959
  -0.1945071   0.0975197   0.4194906  -0.2693696  -0.2966446   0.6485146
   0.2588743   0.1941115   0.6398021  -0.4326216   0.1219782  -0.1571966
   0.1648449  -0.1926934  -0.7034130  -0.1529540   1.1443644  -1.1329446
  -0.0630606  -0.0191701  -0.0566726  -0.1577988  -0.1835076  -0.8220025
  -0.2764985   0.1770593  -0.1853712   0.3369877   0.0525629   0.2179639
   0.6066786   0.2315334   0.0306014   0.3308644  -0.4972722   0.1141750
  -0.1134824  -0.1144500  -0.0721468   0.0092269   0.5897035  -0.4383830
   0.1343105  -0.3328882   0.5085639   0.2659926   0.0570802   0.0776348
  -0.2179039  -0.6936312   1.3178868  -0.0345837  -0.8028403  -1.1739063
  -0.0678477   0.0898664   0.0460905  -0.2453186  -0.0731318  -0.2903351
  -0.0700529   0.1258605  -0.4774482  -0.1487638   0.2110194   0.3716145
  -0.4994696   0.8419540   0.0359201   0.4370435   0.5267490  -0.3169047
  -0.0773970  -0.0284109   0.1523619   0.4800644  -0.5375115  -0.3408631
   0.0779196   0.0085049   0.2253046   0.2512688   0.0515970   0.0450126
   0.7046706  -0.3055280  -0.8484086   0.2700166   0.1903289  -0.2964058
   0.0240456  -0.0713499   0.2676661   1.1671019   0.0539787   0.0392225
  -0.2560123   0.0001931   1.3208949   0.0276853  -0.1808508  -0.0141113
   0.1385951  -0.6835268  -0.4915976  -0.1652847  -0.2839333   0.7058027
  -0.2218147  -0.0328537   0.0353981   0.3871996  -0.0474273  -0.2836587
   0.3565944  -0.5063197   0.4690393  -0.2924989   0.2579654  -0.1331540
   0.1862626   0.1133455   0.4737615  -0.9138905  -0.4094080  -0.2165145
  -0.1860586   0.0264664   0.0791554  -0.9300666  -0.1182254  -1.7615285
   0.8528769   1.2782755  -0.8179036   0.2922172  -0.3498360   0.1041759
   0.8168530  -0.7772110  -0.9871744  -0.9947725  -0.3807625  -0.1617259
   0.0671332  -0.0848285   0.0132251  -0.9750891  -0.3926752  -0.8475293
   1.1322832   0.2309814  -0.9832019  -0.0179300   0.4543478   0.0625445
   0.0309811  -0.5194265  -0.3700658  -1.1539441  -0.0831388  -0.7181368
  -0.2593975   0.1554099  -0.2033626  -0.1975619   0.2477127  -0.6657981
   0.0480606   0.7873437  -1.2540509   0.0480648   0.0719256   0.1100810
  -1.6099842  -0.0513479   1.2731728  -0.5968284  -0.2734045   0.8354392
   0.1614232   0.2101611   0.0515725   0.7217645  -0.4524850   0.5280793
  -0.7658545   0.4719624  -0.9111205  -0.2864693   0.3179349  -0.1973601
  -1.5277810   0.3664251  -0.3003402   0.6184616   0.4884025  -0.4968027
  -0.0356318   0.5670042   0.1301194   0.6665908   0.3737105  -0.6179231
  -0.6157378   0.1724117   0.4685712  -0.2830713  -0.1431936   0.0721620
  -0.2375746   0.4707947   0.0484830  -0.2618760  -0.2005621   0.3222319
  -0.2296093   0.1450391  -0.2788740   0.0524514  -0.5509557   0.0023320
   0.2899836  -0.1063049   0.3621120   0.3754529   0.2998680   0.2480506
   0.2954041   0.2318228  -0.4534626  -0.1097624  -0.3769212  -0.4665362
  -0.0247216  -0.1466422  -0.2681154  -0.1891623  -0.1156594  -0.4732371
   0.4855819   0.2698116  -0.3303830   0.2351310   0.0009201   0.0718940
   0.4727003   0.3520794   0.4255804  -0.1942805   0.1408696  -0.1529873
   0.2364610   0.1963646   0.2622379  -0.0154576  -0.1568289  -0.2994593
   0.9784753   0.1584157  -1.3140027   0.0309926   0.0546817   0.2209052
   0.6161096  -0.1856719   0.9840725  -0.2858738   0.2361109  -0.3754941
   0.1893824  -0.2278483  -0.1983993  -0.9771508  -0.4723964  -0.7788622
   0.3276470   0.0143280  -0.2762228   0.1774897  -0.0560020   0.0175036
   0.2776436  -0.0538609  -0.3153188  -0.2038956   0.7564340   0.5433530
   0.0045217   0.1439543   0.0801726   0.1528050  -0.5726518   1.3061646
   0.2133257  -0.1877087   0.2952576  -0.1764218   0.1655078  -0.0043345
   0.0378436   0.0652578   0.1280195  -0.4358694  -0.1498667   0.0983245
   0.3170187  -0.4140569   0.1725416   0.2481161  -0.2234805   0.1741920
   0.2737750   0.3441806   0.2666778   0.4109157  -0.1191859   0.0155317
   0.3205727  -0.2772814  -0.7967089   0.5042637  -0.1244185   0.0128454
  -0.0190840   0.3990059  -0.2095435   0.0042518   0.3525377  -0.1869460
  -0.3882111   1.5909287  -0.2906315   0.1032507   0.2002137  -0.2723939
   0.4881848   0.1706361  -0.4420288   0.1815232   0.6992085  -0.0743176
   0.0386230   0.0925989  -0.0919745   0.3271887   0.0365579   0.0817292
  -0.4658281  -0.4071347   1.1021834  -0.1067554   0.1178425   0.1149205
  -0.1358509  -0.0362741   0.4714737   0.2677005   0.2034318   0.2257504
  -0.0586489  -0.0984057  -0.2503665   0.5816748  -0.3649611   0.1624666
  -0.6013198   0.2328553   0.4088313   0.0221268   0.2852400   0.1372629
  -0.1764101   0.5353976  -0.1965191   0.4283465  -0.0056475   0.4886691
   0.2529562   0.1557274   0.5124213  -0.5122615   1.2408001   0.4204493
  -0.2953385  -1.0860074  -0.0385300  -0.0083739   0.0778963  -0.0438966
   0.3575312   0.3264884   0.0504398  -0.4301829   0.2880461   0.2621855
  -0.2830421  -0.2512525   0.0033711  -0.1221848  -0.6011723  -0.3189596
  -0.5008729  -0.7830291   0.4252623  -0.3804242  -0.0576882  -0.1710279
  -0.0369316  -0.5614047  -0.5466976  -0.0105925  -0.3149855  -0.7437642
   0.1176034   0.1851740   0.4534225  -0.1140914   0.9072975  -0.1567443
  -0.4955319   0.1809017   0.5451353   0.0862057   0.1301646  -0.1894785
   0.5140859  -0.7357749   0.0278530   0.4691407   0.4045198  -0.4204676
  -0.0378952   0.0505188   0.1974617  -0.2426657  -0.6791716   1.1429776
   0.7480282  -0.7243297  -0.0025036   0.1418465   0.0624281   0.2799419
   0.0182066  -1.0643685  -0.0883631  -0.2345938  -0.1718046   0.0210726
   0.1487987  -0.0766016   0.1496191   0.3051526  -0.7130519  -0.4738186
   0.2836172  -0.3406026   0.7548406   0.2379603  -0.0869373   0.0068725
  -0.4569594  -0.9883243   0.2410659  -0.3285231   0.5449296   0.0758367
  -0.1605530  -0.2821979   0.1117239  -0.4119665   0.4474236  -0.4885874
  -0.1111623  -1.1979904   0.2189657  -0.0240544  -0.1006913   0.2259689
   0.5771465  -0.5372015   0.2823138  -0.2973909   0.2673835  -0.9642988
  -0.0970683  -0.3975543  -0.1476550  -0.8991374  -0.0703303  -0.2294427
  -0.5404190  -0.0842564   0.1773885   0.0876072  -0.0850210   0.2683321
   0.1100112  -0.0793834   0.3285204   0.0311465  -0.0584669   0.1999331
   0.0364897  -0.0988523   0.1611015  -0.2914491  -0.3492876   0.0870986
   0.0552328   0.0884065  -0.0793833   0.0543230   0.2102037   0.1535553
  -1.5709561  -1.1779157  -0.1434545   0.4654785   0.4368558  -0.5697367
  -0.1456913  -0.0762642  -0.1488004  -0.8898931  -0.4207763  -0.1120703
  -0.2771917   0.7282657  -0.1741650  -0.4056785  -0.1184538  -0.0025526
  -0.1573685   0.2747582  -0.0030419   0.6056550  -0.7866237  -0.1801801
  -0.0886906  -0.0370734  -0.0871399  -0.0434293  -0.4420036  -0.9183348
   0.1096476  -1.3572968  -0.7810044  -0.0762727  -0.0834768  -0.0260542
  -0.2434586  -0.1818808  -0.0693407   0.2998284   0.4497012   0.5066786
  -0.3146352  -0.1007305   0.1648184  -0.1262194   0.0168971   0.3145826
  -0.6507043   0.2234908   0.0260490  -0.2487005  -0.1307124   0.0120445
   0.2811826  -0.2780021  -0.1254032   0.9181007  -0.1735350  -1.0460116
  -0.4353247   0.1625023  -0.0083657   0.3559346  -0.0040899  -0.3334610
   0.6057615  -0.1172820  -0.1768253   0.0632077   0.0884409   0.2022829
  -0.6623703  -0.0694316  -0.6236691   0.3342288   0.1699398   0.3004972
  -0.3030166   0.1662720   0.0877978   0.1852825  -0.0815088  -0.5769029
  -0.7937740  -0.2627229   0.1487560   0.1533223  -0.0861019  -0.2834006
  -0.5264262   0.1538992   1.7054428   0.3618592  -0.0583031  -0.4045454
  -0.2129237   0.2360747   0.0726134  -0.3579642   0.4196244   0.3516333
  -0.7379397   0.7242709   0.9997896   0.0085868  -0.1106363  -0.1525118
  -0.3610453   0.6009853  -0.8472270  -0.4550955  -0.4953369   0.5094057
   0.1167768  -0.0271360  -0.1027668   0.4073978  -0.5518193   0.8340262
   0.3206163   0.8475239   0.1984676   0.0221295   0.0095373  -0.0377588
   0.0012897   0.0045838   0.1967252   0.1628265   0.2814198  -0.1393284
  -0.2800894   0.0301385  -0.0638121   0.4116334  -0.3704729   0.1232183
  -0.2795485  -0.1005122  -0.0108759   0.2185590   0.1091555  -0.0830462
  -0.5680399  -0.7068540   0.0532331  -0.1922412  -0.3225643  -0.0168071
   0.5682688   0.1336178   0.2133663   0.6875071  -0.1274005   0.7573866
   0.2217038  -0.5609332  -0.0762300   0.0415296   0.0305216   0.0743998
  -0.4907958   0.1275373   0.0589481  -0.7975894   0.4232641   1.3628434
   0.3150618   0.0664112   0.2717465  -1.3170180   0.5221043   1.4510192
  -0.1730723  -0.5329724  -1.6953117   0.0488549   0.3086604  -0.2219899
   0.2252559   0.5296192  -0.6203512  -0.2412512   0.4015344  -0.0849677
   0.0230102   0.0957355   0.0063294  -0.1540842  -0.0845663  -0.0830791
   0.2830892   0.0814917   0.2009529  -0.2044024   0.0319844   0.1909228
  -0.0395262   0.4980035   0.0920536   0.4839207   0.1283932   0.7642557
  -0.0768392  -0.3045936  -0.1329305   0.6671095   0.4520176   0.0799888
  -0.5330801   0.3644409  -0.6542546   0.2628952  -0.1420312  -0.0119214
   0.3901938  -0.1835723   0.1544042   0.2481069   0.1538497  -0.2261041
  -0.1013045   0.2287900   0.0470422   0.0580840   0.5067073   0.2995010
  -1.1449643   0.0570670   0.6797257   0.0703855  -0.2108961  -0.1586819
   0.6083969   0.1240059   0.8718607  -0.3067465  -0.4267448  -0.8850926
   0.0529220  -0.2037377   0.2912015  -0.4380309  -0.4422036  -0.1099517
  -0.3598591  -0.3031148  -0.0125581   0.0936653   0.1906532  -0.1845853
  -0.4791875  -0.8165029  -1.2549405   0.2570594  -0.2079278   0.8860806
  -0.1685766  -0.0445954   0.2946973  -0.0220942   0.2171799  -0.9205222
   0.3954491  -0.1634319  -0.4795265   0.2351101  -0.0878977   0.2629663
  -0.1239822   0.3515680   0.6040499  -0.5515410   0.2290931   0.5719218
   0.3477002  -0.0826118  -0.0984460   0.1503656  -0.4147650   1.0803481
   0.5953580  -0.4446393   0.1595199  -0.0130616   0.0891738   0.0138410
  -0.3350441  -0.3297607  -0.3718200   1.4879521   0.1348613  -0.1579471
  -0.1978933   0.2525977   0.1169215  -0.1099827   0.5289255   0.0253266
  -0.0739456   1.0253330  -0.3148829   0.0307357   0.0411811  -0.0675908
   0.3942914   0.9012071  -0.4462328  -0.5351814  -0.0569792   0.0182414
   0.1449402  -0.1558643  -0.2378045   0.4577636  -1.7554801  -0.2594041
   0.0443123  -0.0439003  -0.0287325  -0.0707902  -0.3194776   0.0504348
  -0.7231519  -0.1679299  -0.5490774  -0.7923011   0.0158605   0.4707531
   0.1461153  -0.1020458  -0.0217119   0.1897867  -0.1640338  -0.0281716
   0.1466739  -0.0677628   0.0162623  -0.0241790   0.2272140  -0.2101643
   0.0101746  -0.4055863  -0.0411047  -0.4613942   0.7430539  -0.2641116
   0.1430790  -0.0090527  -0.2388323  -0.1168391  -0.0990849  -0.2682210
   0.1172805  -0.5203141  -0.4460410   0.0748455  -0.0378151  -0.0459656
   0.1664527   0.3029582   0.3000803  -0.0059129  -0.1316476  -0.3607218
   0.3264861   0.0258904  -0.0051122   0.9447743  -0.5831590  -0.7778689
   0.4398883  -0.3197259  -0.4964558   0.2487491  -0.0385752   0.0541321
   0.8426183   0.1613767  -0.5731761  -0.9145660   0.7558168   0.2733858
   0.1021185   0.2854514  -0.2526730  -0.1751824  -0.1260911  -0.5030985
   0.3244505  -0.2810802   0.4232016   0.1117404   0.0778571   0.2654784
   0.5018289  -0.7120670   1.6926546   0.4855777  -0.5565508   1.8693173
  -0.0579262  -0.2605910   0.2030866   0.1609097  -0.5887015   0.5936030
   0.4136599  -0.7960613   0.4060468  -0.0119737   0.2562963   0.0364586
  -0.9422934   0.4610219  -0.5528611   0.4858667   0.1785955   0.3567457
   0.0773124  -0.0130004   0.0940993   0.8690827   0.9395605  -0.6773935
   0.3522194  -1.2257959   0.5521994   0.1567299   0.0595393   0.0096458
  -0.6924094   0.4138003  -1.1640884   0.3029047   0.3433373   0.4081922
  -0.2669899  -0.1793887   0.0797663  -0.3669540   0.0167786   0.1742999
   0.1246758  -0.9999284  -0.2293589   0.1036479  -0.2202937   0.3868719
   1.4071679  -0.1194546  -0.6214717  -1.0484156   0.1621849  -0.3462900
   0.1115342  -0.0864503  -0.1566355   0.3580321  -0.1273503   0.1278547
  -0.5877606   0.5213739  -0.1152796  -0.0978527   0.1137100   0.0091934
  -0.8271433  -1.1182703  -1.2797580  -1.3523076  -0.8180525   0.5110378
  -0.2076323  -0.0516474  -0.0564255  -0.4840039   0.5285470  -0.5567055
  -0.2770927  -0.5323228   0.1052208   0.1394606  -0.1079500   0.3345420
   0.4821053   0.8630107   0.8812467   0.1124778   0.1474185  -0.7999824
  -0.3137833   0.0872097   0.2373731  -0.3814292   1.5506462   0.9104862
  -0.7759393  -1.7434945  -0.5969858  -0.1977255   0.0094520  -0.0577872
  -0.5048049   0.1808683  -0.7759394  -0.2822845   0.4970595   0.0615779
   0.2139421  -0.1830863   0.0562562   0.1204555   0.3080425  -0.5265077
  -0.0970023  -0.6072869   0.5641214  -0.3004448   0.1095625   0.0235660
  -1.5919745   0.6988377   0.5213811  -0.5961583  -0.9892076  -0.0917298
  -0.0918476  -0.4045722   0.3055330   0.6878540  -0.1256173   0.1206216
   0.0499764  -0.3376234  -0.4331984   0.2380100  -0.3453304   0.1474969
  -0.1097593  -0.7713271  -0.0005280   0.6103310   0.5969695   0.6339915
  -0.1332145   0.1325169  -0.1832936   0.6112556   0.7071602  -0.4261995
  -1.8750629  -0.2342300  -0.4326870  -0.1229261  -0.0649529  -0.2369045
  -0.1068878   0.3697691   0.0475382  -0.4969307  -0.5170964   0.7159774
  -0.1105988   0.2628393  -0.2877333   0.8754438  -1.1604562   0.4318019
   0.3786235  -0.3860386   0.4884444   0.2958894  -0.5968497   0.1106753
   0.6522851   0.2151441   1.0961484   0.2929229  -0.5050173   0.1198914
  -0.0646371   0.1605476  -0.1653053   0.4547763  -0.2299145   0.0800855
   0.8257435  -0.4148171   0.1105134  -0.0528210   0.0135716  -0.1319344
  -0.1671791  -0.2936024  -0.0873702   0.4665048  -0.8764272   0.1090690
  -0.0245695   0.0168784   0.2540176  -0.1180172  -0.8830961   0.0172632
  -0.0341955  -0.7853996  -0.0891476  -0.1735322  -0.0124039   0.1852576
  -0.2834327  -0.0733680   0.0952874  -0.3869706  -0.0771979   0.2859561
  -0.0051067   0.0599895   0.0627834   0.1455386  -0.8951534   0.4973462
   0.0645641   0.7937133  -0.7277780   0.0416287   0.0658861  -0.0838288
  -0.4271502  -0.9759388  -0.6827332  -0.4183421  -0.0786795  -0.1125961
  -0.2228167   0.2407838  -0.2147869   0.1374688   0.0129926   0.1545398
  -0.2476279  -0.1608811  -0.5195949   0.0360705   0.0484662   0.1399891
  -0.1672624  -0.4229838  -0.2190666  -0.4251320   0.2413371   0.4526173
   0.0449903  -0.0716081   0.0878287  -1.0072696   1.0419316   0.9941267
   0.0934740  -0.4262144  -0.3169170   0.1288027   0.1599039  -0.0315102
  -0.7861513   0.3614228  -0.4699325   0.4600392  -0.2742062   0.5494904
  -0.2836351  -0.1089935  -0.2375953  -0.9224318  -0.5613839  -1.3278407
   0.1154621   0.1913181   0.5117530   0.0981468   0.2093078   0.1182351
  -0.0090925   0.3052207   0.2885879  -0.1802132  -0.2371946  -0.0908764
   0.3529221   0.0265285   0.1915450   0.3333126   0.2748789   0.4709711
   0.3821576  -0.1940439   0.6013355   0.2660029   0.2602178  -0.2083731
  -0.0927416   0.8837700  -0.7951927   0.4705393   0.7853476   0.6332749
   0.1985210   0.1488595  -0.1080243   0.8831152  -0.2454921   1.1953537
  -1.2454943  -1.2490549  -0.0698512   0.0096995  -0.1840859   0.0578320
   0.6663811   0.1112574   0.0449964  -0.8094545   0.3097635  -0.0596150
  -0.0646523  -0.0926917  -0.3125637  -0.7839549   0.2331447  -1.8593055
   0.4885439  -0.1190048  -0.4438757  -0.3034833   0.0147377   0.0898242
   0.2635116  -0.7137587  -0.6775559   0.8483785   0.4238539   0.1505227
  -0.1029789   0.2232909  -0.0143526   0.5872042  -0.7053338  -0.0144045
  -0.8969728  -0.3318508   1.1024926  -0.0861280  -0.3447904   0.2988291
   0.2927248  -0.4022696  -0.6532753   0.3588239   0.1291228   0.9883256
  -0.2118817  -0.2812936   0.0734708  -0.2924935  -1.2147880  -0.4077767
   0.4148684  -0.6127899  -0.1952046  -0.1613824   0.0688270  -0.1204046
   0.0773255   0.3635982  -0.0302982   0.1147690  -0.3459245  -0.1945219
   0.1110094  -0.0823156  -0.2722456  -0.2599902   0.3286324  -0.1721782
   0.3673031   0.3027690   0.2140738   0.1102199   0.0400605  -0.0065394
  -0.0385435   0.3453831   0.2695531   1.1607723  -0.7091433   0.0976614
   0.2182898   0.0986516   0.3165725   0.5332660  -0.5570820  -0.6377838
   0.0172068   0.0612117   0.2809393   0.2447983   0.0656022   0.1849546
  -0.1130126   0.4755347   0.0162509   0.1993200  -0.3491157  -0.0282384
  -0.0060064  -0.0387562   0.0527373   0.3848980  -0.3629612   0.2866787
   0.2598736  -0.4291394  -0.0459201   0.3064347  -0.1932912  -0.1186565
   0.2516385  -1.1582851  -0.0952060  -0.0130138   0.1277384   0.0332140
   0.0563248   0.0446675   0.1092041   0.0388140  -0.0126623  -0.1348275
   0.1661422   0.0480813   0.2258565   0.1827611   0.0667937  -0.1240538
   0.1210706   0.0319162   0.2992618   0.3497526   0.1115694  -0.2509979
  -0.3549042  -0.1845904   0.2727238  -1.1812723   0.5442855   0.5140744
   0.6188423  -0.5020793   0.3890369   0.1421039   0.2977563  -0.0484080
   0.8687694  -0.0671175   0.3226847   0.4056879   0.5731908   0.0480686
  -0.0677683   0.0740827  -0.1125159   0.7450346  -0.5892395   0.0094805
  -0.1009101   0.7340935   0.6442795   0.1086807   0.0394656   0.1629414
   0.7431638   0.9512984  -0.5331256   0.7209585  -0.2801862   0.2480847
   0.2644212  -0.2388971  -0.4241320   0.5664555   0.6886731  -0.2863311
   0.6793912   0.4150477   0.0654190   0.0661329   0.0812536  -0.1897823
  -0.1570491   0.1244433   0.1082828  -0.5815808  -0.5638765  -1.0414911
   0.0821244  -0.0942616   0.3981382   0.3857332   0.1774597   0.2002538
   0.6774574  -0.0387143   0.2429946   0.2255874   0.2203075  -0.1892218
  -0.1213994   0.6506280  -0.6079590  -0.6277146   0.4753454  -0.3849778
   0.0676406  -0.1309613   0.1507222   0.0605196   0.3650266  -0.6389967
   0.2085033  -0.0812157   0.3620074  -0.1023553  -0.1599440  -0.0590985
   0.2392732  -0.5665956   0.0553240  -0.9178131  -0.2466805   0.5612815
  -0.0997431  -0.3041051   0.1563907  -0.1106734  -0.3006313   0.1384278
   0.1133519  -0.0980266   0.4840680   0.0790241   0.1736649  -0.0429800
   0.9940489   0.2637339  -0.5972663  -1.2342485  -0.2176741   0.0683902
   0.2083917   0.0171833   0.3490393   0.9300312   1.1769157  -0.3232255
  -0.5004680   0.3829795  -0.5493655   0.1371129   0.0959441   0.0153030
   0.3334985  -0.2471589   0.0985335   0.2446446   0.5059115  -0.9222573
   0.1378593  -0.1649476  -0.1020308  -0.0211395   0.6426263  -0.4716637
   0.0645929   0.3397576  -0.2823459   0.0709812   0.2307710  -0.1458601
   1.3555302   0.6653754   0.1727061  -0.0746195  -0.8765876   0.8320980
   0.1965173  -0.0949539   0.5119011   0.2655304  -0.0677434   1.7244747
   1.5635655   1.0698430   0.0577684   0.1329989   0.2155472  -0.0569124
   0.4602396   0.3767629  -0.0291779   0.4381843   0.2233943   0.0666850
  -0.0304376  -0.1194937  -0.2308801   0.5830049   0.3672762   0.1443546
  -1.1577761   0.6322111  -0.9002459  -0.0271781   0.1778059  -0.5008475
  -0.4442736  -0.0950980  -0.6007537   0.0501486  -0.4311991  -1.0410031
   0.3382488  -0.0260928   0.3107730   1.4241249  -1.4068438  -0.7564037
   0.1502429  -0.8435826   0.9120479  -0.0165610  -0.0010899  -0.0480576
  -0.2206037  -0.5096585  -0.3249741  -0.7704768   0.3244565  -0.1045870
  -0.0052589   0.2479189   0.1458151  -0.0979628  -0.9002340   0.1207564
  -0.0705976  -0.3374261   0.2254752  -0.1329562   0.0478771  -0.0235430
  -0.7310556   0.7246164   0.1347266  -0.2597635  -0.0640728  -0.2187350
  -0.0070816   0.2349062   0.0016736  -0.6744593  -0.4660066  -0.1802119
  -0.2542775   0.2168433   0.2363492  -0.0798197  -0.0466781  -0.0745966
  -1.2195120  -0.2365053  -1.0047959  -0.3477543  -0.4235682   0.1909248
   0.3578218  -0.1743907   0.2030523  -0.1313683  -0.7652505   0.2786072
  -0.0461654   0.3315045  -0.1223498   0.1131616   0.0767703  -0.0701924
   0.0927719   0.4856669   0.2028031  -0.1488521   0.3418293  -0.0804454
  -0.2639284  -0.0906551  -0.1169947  -0.5173131  -0.0476473   0.1908047
  -0.3634087   0.4963322   0.1051941  -0.0543270  -0.0260465   0.1879976
  -0.0922868   0.3608100   0.0708572  -0.1118306  -0.0686862   0.2751610
  -0.2906460  -0.1925865   0.1731017   0.2841317  -0.3526943  -0.3347265
  -0.2627017   0.5151831   0.2170730  -0.1376221  -0.1728491  -0.1996208
  -0.0825226   0.7243365  -0.2504587   0.5125811  -0.3804004  -0.7892806
   0.0072908  -0.1468872  -0.4764987   0.0001439   0.1400084  -0.0742577
  -0.9487754   0.0938528   0.3080089   0.2367655  -0.2247582   0.1559633
  -0.3862020   0.3668641   0.7630736   0.6974992   0.3729251  -0.5794821
   0.2247581  -0.1491129  -0.1679402  -0.0504009  -0.1649632  -0.4430185
   0.4973736  -0.5184718   0.0654313   0.1712168  -0.2832843  -0.0478941
   0.5115462   0.5185834   0.1886497   0.3695840  -0.8275182  -0.2471874
   0.1416703   0.1844680   0.0297649   0.3264044   0.0680075  -0.8902566
   0.0672115  -0.0591123  -1.0280835  -0.1332898   0.1649436  -0.1457072
  -0.3397253   0.3034468  -0.1091388   0.0919583  -0.0124825  -0.0799455
   0.0143078   0.0133380   0.3103747   0.5297242  -0.1717400   0.3185323
  -0.0911825  -0.6295013   0.3710791   0.2533284  -0.0556950  -0.0015827
  -0.4462552  -0.7120460   1.5373708  -0.7394747   1.0662667  -0.4048794
   0.1113723   0.4896938   0.0554376  -0.2872311  -0.8569632  -0.3946974
  -0.5306786   0.7154022   1.0769574   0.1201876  -0.2772131  -0.1924562
   0.1316550   0.0130684  -0.0462563  -0.4034852  -1.9394747  -0.0550151
   0.0607983  -0.1627691   0.0996233   0.0683636   0.0833279   0.0799289
   1.0361384  -1.4666438  -0.8953170  -0.2234555   0.0398279   0.0962566
   0.2930967   0.2228417  -0.6934607  -0.6291033  -0.1104908   0.8594701
   0.0958189   0.2075254   0.2234596  -0.2900754   0.4046253  -0.2792134
   0.7075762   0.5068208   0.2151411  -0.0119308   0.0028088  -0.3083966
  -0.1432772  -0.2496405  -0.5735964   0.2795129  -0.0947153   0.0367187
   0.2690492  -0.2085244  -0.0501233  -0.1338412   0.7930228  -0.9008821
  -0.0558671   0.6083051  -0.7574107  -0.1098824  -0.1703469  -0.0459081
  -1.6829439   0.0818970   0.0346441   0.3950550  -0.5612192   0.8872203
  -0.0866781  -0.0679603   0.0123546  -0.6672765  -0.4605885  -0.0831815
  -0.0401944   0.5360085  -0.0589435   0.0921930  -0.0701180  -0.4297677
  -0.3426258   0.2697215  -0.2122393  -0.2469438  -0.5809089   0.1958237
   0.3521500   0.0185955   0.0154176   0.7374810  -0.0307797  -1.0715700
   0.2731915  -0.0033722   0.6480900  -0.2307424   0.0246577  -0.0792216
   0.4748969  -0.6564984   0.0369493  -1.1895504   0.3953789   0.2029665
  -0.1485052  -0.1073936  -0.2654048  -0.5660722   0.1853216  -0.9299772
   0.1537712   0.0229116   0.2195768  -0.1278929   0.0107196   0.0457431
  -0.2834283  -0.2471952   0.1197747  -0.2508835  -0.0556075  -0.4269968
  -0.1828050   0.0326859  -0.0604065  -0.4007439   0.1118395  -0.1397638
  -0.3866051   0.1424843  -0.1114662   0.1391040   0.0020634   0.1368882
   0.9631036   0.1785046   0.1063139  -0.2804798   0.1829693  -0.4762371
  -0.0007855   0.0590963   0.0665005  -0.0735434  -0.1999816   0.1900069
  -0.5337423   0.1645748   0.2256553   0.0692358  -0.0605543   0.1041292
   0.2270092  -0.1007851   0.2512391   0.1165452  -0.1403042  -0.0618810
  -0.0843973  -0.3717383  -0.2541408  -0.9354753  -0.1417113   0.1764174
   0.3536091  -0.4067790  -0.6133426   0.0295922  -0.0955317  -0.4679144
  -0.1058779   0.6090147  -0.8629911  -0.1436827   1.9164731  -0.6045606
   0.1709774  -0.0174897  -0.4449231   0.3077946  -0.1200658  -0.2010755
   0.2660010   0.1681929  -0.5402168  -0.2500748  -0.0150199   0.0181871
  -0.0357675   0.1581188  -0.4355002  -0.2909909  -0.4224097   0.9158710
   0.1663476  -0.0121830  -0.3548488   0.6024808  -0.0324847  -0.5903204
   0.0643182  -0.4593908  -0.3794123  -0.0294938   0.0001109  -0.4381533
   0.4199525  -0.5517160  -0.7954559   0.2928975   0.0876105   0.3030521
   0.0973374  -0.0830630   0.0236859   0.0145111   0.6128563   0.1317003
   0.3675279  -0.0566757  -0.2490858  -0.0747340  -0.0057135  -0.0623188
   0.1016315   0.6479231   0.2987364   0.2110052   0.0908149   0.5992770
   0.3292393   0.1620451  -0.1932674  -0.2347210  -0.6779297  -0.4888602
  -0.2288425  -0.3916721  -0.2901661   0.1225147  -0.0757276  -0.0202768
  -0.0501621   0.1188535  -1.7405846   0.2856373   0.0707668   0.2544700
   0.0489653   0.1126601   0.0936932   0.5416159  -1.1224114   0.2571584
   1.0686844   0.5012568  -0.0672155   0.0180213  -0.0811218   0.5867081
  -0.3772452  -0.2707091   0.9204541  -0.0961924   0.1974063   0.4072492
   0.1156446   0.0161150  -0.0799724   0.4126802  -0.1729862  -1.1514162
  -1.0718641   0.4189967  -0.2313991  -0.0870620   0.3559971  -0.0504725
  -0.2953552   0.2461284  -0.0489451   0.2597920   0.7078098  -0.0010723
   0.2055736   0.2083926  -0.0845321   0.3766716   0.1342777   0.5309343
   0.2680556   0.1208431   1.3431332   0.0255185  -0.1156463  -0.0913992
   0.5566103   0.0089658  -0.8004446  -0.1764544   0.1425109   0.2586356
   0.3051985   0.1432624  -0.0018986   1.0675208  -0.5354597  -0.5498780
   0.7698850   1.3901709   0.6521226   0.0265626  -0.0313417   0.2145863
  -0.4677620   0.4644189   0.1478809   0.2407049   0.0809315   0.8957130
   0.0179295  -0.1063015  -0.0515635  -0.4111199   0.2323081  -0.2328612
  -0.2600221  -0.6175809  -0.0014068   0.3469694  -0.2249062   0.0078771
   0.1825122  -1.4342758  -0.2132633   0.2415791  -0.0427711  -0.1566036
   0.0366356  -0.1146551  -0.2862929  -0.3748858   0.3321455   0.0722407
  -0.5562031  -0.4819898   0.6860327  -0.3095351   0.1779539   0.1053009
  -0.7650871   0.5577875   0.1679796  -0.8845533   0.4719950   0.1072660
  -0.0243686  -0.1945267   0.0347129   0.3768002   0.3849929  -0.2899521
  -0.2635893  -0.2187697   0.7350680   0.0598555  -0.3264929   0.2743263
   0.0218732  -0.4955728   0.6794412  -0.5670346  -0.1176894   0.1231218
   0.0650875   0.0079376  -0.2518786  -0.0494004   0.6457780  -0.2663478
   0.7716862   1.4203755  -0.7427742   0.3345429  -0.0794973  -0.1193065
  -0.0419172   0.1931675  -0.3958619   0.5359417   0.1213214   0.2622413
   0.0336986   0.1318656   0.1487474   0.6159149  -0.1508175   0.5452445
  -0.0222385  -0.5281675  -0.7735895  -0.1114885   0.2561681   0.0184854
   0.4275798  -0.0768478  -0.3048939   1.4573868   0.6584577   1.1533459
  -0.1904214   0.1910149   0.0621229   0.0687628   0.2334583   0.0821851
  -0.2949303   0.2973241   0.0362151  -0.1964055  -0.0258894  -0.0670259
  -0.0783878  -0.4870014   0.0384723   0.3247146  -0.0334353  -0.1852447
   0.2103734  -0.0831037  -0.0681516   0.0658076  -0.5964873  -0.3133332
   0.4524714   0.6177943   0.4499671  -0.3105399   0.0851320   0.0730327
   0.3676446  -0.3718601   0.2381469  -0.4873331   0.0506858   0.2046041
  -0.1609120  -0.0647610   0.0227003   0.1309445   0.6337479   0.2194023
  -0.3341464   0.0879759   0.1718239  -0.1549553  -0.1843993   0.0794505
  -0.2102576  -0.1815058   0.7368481   0.1659904  -0.8090243  -0.4296581
   0.0429344  -0.0549413   0.0308751   0.0889576   0.0330873   0.2551312
   0.4188345   0.2288028   1.0991163  -0.2024094  -0.0338913   0.0341784
  -0.2931435  -0.2417675  -1.4944621  -0.8767675   0.6453139   0.7273713
  -0.0881096   0.0082169   0.1169320   0.6159935   0.4078542   0.6281824
   0.4586546   0.4050139   0.6489439  -0.0969598   0.1282995   0.1412076
  -0.4237430  -0.2894790   0.4715443  -0.1523657  -0.0327118   0.2614284
   0.0843300  -0.4471316  -0.1542352  -0.4359297   0.1608810   0.5696377
  -0.1821535  -0.0851880  -0.3025800  -0.4034350  -0.0755044  -0.1332599
   0.3539948  -0.9025002   0.3099520   0.0879312  -0.6237037   0.2489192
  -0.3333919  -0.1824234   0.2738403  -0.2986624   0.3011550  -0.9267860
  -0.4473991  -0.2758362   0.3558787  -0.0875340   0.1340069   0.2551648
   0.0591915   0.7060808  -0.9075717   0.0285429   0.5453395  -0.5950659
   0.2500502  -0.2551213  -0.3031911  -1.3067217  -0.6256853  -0.0730073
   0.5452270  -0.8164509   0.6047517  -0.2171272   0.1145615  -0.0606102
  -0.3414206  -0.7853555   0.3690298  -0.3372197   0.6280454   0.5070806
  -0.2468282  -0.0742622  -0.1678812  -0.2322503   0.4285161  -0.1606000
   0.2014994  -0.1537220   0.0790285  -0.3701334   0.4738551  -0.0929948
  -0.2094524   1.1194818   0.2305517  -0.2979631   0.7743158  -0.1612158
   0.1751562  -0.0067766  -0.0482500   0.0765142  -0.0436331  -0.1442022
   0.1546402  -0.1902651  -0.0879790   0.1372187  -0.1225597  -0.1462078
   0.5622930  -0.3479750   0.2744615   1.1585321   0.1894902   0.1218118
   0.1958650   0.2617726  -0.2656714   0.4459253  -0.3851301  -0.0820672
   1.2559404   0.7389501  -0.1345187  -0.4289795   0.1719135  -0.0428803
   1.0211879   0.3706712  -0.7642524  -1.0264727   0.0974875  -0.8364606
  -0.0786010   0.4168971   0.0462121   0.0277502  -0.5975577   0.7494698
  -0.3863020   1.2072202  -0.6028422  -0.1013831  -0.0618065  -0.2195011
   0.1556545  -0.1450440  -0.2584814  -0.2786269   0.4015421  -0.2949924
   0.0174455  -0.0276251  -0.0655976  -0.0972407   0.2834872  -0.1818244
  -0.0645529  -0.3108516   0.0732273   0.3061396  -0.0893862   0.0946834
   0.9035166   0.6180987  -0.2368677  -0.4764893  -0.6780710   0.3194313
   0.0270577  -0.2013614   0.1877567  -0.1201299   0.1908525   0.6959729
   0.5637601  -0.0321933  -0.0473254  -0.1085529  -0.2220313  -0.0733347
  -0.5230394  -0.6984374   1.0695245  -1.1787373   0.4094458  -0.2087667
   0.1708587  -0.0743940   0.0123477   1.0499263  -0.4617336  -0.4006219
  -0.8948625  -0.5082847  -1.7494356   0.0923695   0.2029547   0.0057571
   0.9875542  -0.6326324   1.0176624   0.6303167  -0.4678568   0.6759618
   0.1157120  -0.0949568   0.1827201  -0.1529420  -0.3812042   0.1436591
  -0.5025524  -0.4878909  -0.2011215  -0.3383080  -0.0165958  -0.1983668
  -0.3089811  -0.4257468  -0.1098144   0.3494430   0.0106171  -0.3313274
   0.1168221   0.4281084   0.0346713  -1.1498954   0.2406022  -0.4544727
   0.2476074  -0.7482550   0.3485827   0.0127671  -0.0745130  -0.1564809
   0.8809539  -0.1614804   0.5296242  -0.8751206  -0.3239714   0.3947734
   0.0714426   0.0145848   0.0766635  -0.0103129   0.1379960   0.2336147
   0.3109812  -0.3729432  -0.2828998  -0.3556670  -0.1050111  -0.2505898
  -0.2625079   0.3741530  -1.3903006   0.9863466  -1.3780209   0.6843206
  -0.2016207  -0.0611924  -0.0707652  -0.2323471  -0.3306525  -1.3420056
  -0.2109339   0.1112573   0.7005606  -0.0493326   0.0196403  -0.0122089
   0.3769541   0.9085807  -0.4554124  -0.3237348   0.9860718   0.6669172
  -0.3733097  -0.2357507  -0.0485804  -0.4440629  -0.3593089   0.2456914
  -0.2464831   0.0807618  -0.7857611   0.0063130  -0.2914738  -0.0934565
   0.0033813  -0.2247089  -0.1842620  -0.1714217  -0.7352890   0.6050530
  -0.1471782  -0.1792823   0.1618325   0.4133153   0.3299035  -0.3957094
  -0.4736394  -0.2153622   0.3456465  -0.1441407   0.1797412   0.2439059
   0.9791877   0.5273826   0.0780331  -0.0082791  -0.7556498   0.8835254
   0.1044782   0.0282443   0.0485572   0.9602910   0.1444138   0.0517281
   0.0950758  -0.0627904  -0.9480291   0.0322296  -0.0117815   0.1360117
   0.7595018   0.9539759   0.7647462   0.3761549  -0.5541430  -0.0789260
   0.1042780   0.1807637  -0.1674450  -1.4061277   0.1584555  -0.3581683
   0.2758139   0.7038224   1.1017578  -0.3242194  -0.0432666  -0.0637496
  -0.3067582  -0.1986340  -0.7236196  -0.0854678  -0.5960945   0.2800220
   0.1758652  -0.0553210  -0.0461213   0.3541062   0.0836125  -0.3472141
  -0.5269961  -0.1113754   0.2011305   0.2978338  -0.0338733  -0.0606005
   0.4287996   0.3103377   0.1669271   0.0293623  -0.1884056   0.0219931
  -0.0435666   0.1555963   0.1951513   0.4617752   0.3126993   0.5732642
   0.0552919  -0.3296740   0.6206028  -0.1370385  -0.0023719   0.0954307
  -0.5704978   0.9036880   0.4834131  -0.5328002   0.1383589   0.3986023
  -0.1176076   0.1695987  -0.2214383   0.1756374   0.3051637  -0.4770044
  -0.2536402  -0.0989815   0.8549679  -0.0684064   0.0674838   0.1395462
  -0.1546267  -0.2296345   0.4467155  -0.6527971   1.2266578   0.3548156
  -0.3684226   0.1471481  -0.0491195  -0.5419441  -0.0071072   0.5076265
   0.2869613   0.1913136   0.3611481  -0.1392225   0.0664473   0.0135477
   1.0093339  -0.1594430   0.1611571  -0.2988236   0.3339192   0.4557379
  -0.1175460   0.1431249   0.3327919   1.2324943   0.4728451  -0.9328008
   0.2131113   0.1480231   0.0812848   0.0629355   0.0583280   0.3780687
  -0.3592220  -0.4796780  -0.5681612  -0.2409064  -0.5512621  -0.3283773
  -0.2084678  -0.3619550  -0.2598741  -0.6469460  -1.2149562   0.3859203
  -0.3311266  -0.0667939  -0.3189144   0.0832486  -0.0512953   0.1345136
  -0.4998221   0.0205706   0.2572212  -0.3992144   0.3296969   0.1610424
  -0.0733101  -0.0578852  -0.0336600  -0.0401470   0.2420830  -0.7028634
   0.3066117  -0.2441035  -1.0089061   0.0966797  -0.2402141   0.2611385
  -0.9968624   0.3729163  -0.5350755  -0.5711348  -0.2636757   0.2681027
   0.0194975  -0.0364453  -0.1286558   0.1058174   0.7770286  -0.3046092
  -0.8109389  -0.4048738   0.0260936  -0.1954583  -0.1430683  -0.3513243
  -0.6865256  -0.2382128  -0.6012916  -1.2920820   0.1150201   0.5526445
  -0.0188637   0.1425847   0.1267011  -0.0338698   0.5126705   0.2693612
  -0.6464665   0.9827468  -0.0547930  -0.3179028  -0.0104536   0.0897184
   1.3820013  -0.7933928   0.6110962  -0.3308594  -0.0305074   0.5154297
   0.0204442  -0.2259658   0.0090948   0.8017758   0.1231098   0.3012909
   0.0093256  -0.9930602  -0.3618563  -0.0147822   0.0516737   0.1946094
  -0.2763543  -0.0643502   0.7647364  -0.3780978  -0.3423054   0.3143244
  -0.2044875   0.0355758  -0.2905145  -0.4413254  -0.1578413  -0.4077354
  -0.1612098   0.1394903  -0.0464925  -0.0073509   0.0297890  -0.1106578
   0.8223086  -0.7665917  -0.8867631  -1.2119440   0.7930830  -0.5584338
   0.0831582  -0.1123747  -0.3818061  -0.1964436  -0.1707093   0.6276519
  -0.0613266  -0.2091545  -0.2225121   0.0712763  -0.1407525   0.1907753
  -0.8361997   0.5356899   0.7801264   0.7134158  -0.3843494   0.2716482
  -0.1497304  -0.0037161  -0.3295356  -0.0921584   0.5507070   0.1424625
  -0.2094853  -0.3123096  -0.6416972  -0.2291487  -0.0772329   0.0929311
  -0.7531774   0.4355601   0.4070468  -0.3488745   0.7102790  -0.2871576
  -0.0093033   0.5281458  -0.0947848  -0.4942055   0.2707113   0.0102485
   0.1804729   0.4636324  -0.4499690   0.1663683   0.1065191   0.2500671
   0.3122277   0.6528657   0.9290961   0.5158858  -0.3197195  -0.0145750
   0.2407678  -0.0830211   0.2331902   0.2886708   0.6390258  -0.4051807
   0.3407759   0.3892498  -0.2974247   0.1837507   0.3800202  -0.0045477
   0.4895478   0.1549769   0.0066001  -0.6465657   0.6107059   0.1761291
  -0.2302808   0.4584494   0.1567170   0.1786235   0.3012186  -0.0678459
  -0.0884360   0.1209968  -0.1665262   0.0971703  -0.1549250   0.2597523
   0.1874875  -0.2532140   0.2424874  -0.0133288  -0.2249400   0.2964452
  -0.2985120  -0.0620712   0.0878839   0.9057608  -0.0019813  -0.3131344
  -0.4618054  -0.0204391   0.1588239  -0.1217430   0.0137715  -0.3912166
  -0.1701638  -0.3990762  -0.4011920  -0.0118708   0.4323499  -0.1126810
  -0.0497828  -0.0210945   0.0634531   0.1059830  -0.6379182   0.6043969
   0.1906665  -0.4832123  -0.6582477   0.0762565  -0.2472377  -0.2225909
   0.0238087  -0.1957674   0.1806685  -0.6272674   0.2588118  -0.3044781
   0.0133597  -0.0766790  -0.0703942  -1.1044086  -0.1797377   0.6060039
   1.0750047  -0.9003687   0.0478868   0.3322469   0.1187630   0.1955804
   0.6296437   0.1330925   0.5045314  -0.1843210   0.2522680   0.4237144
  -0.3717725   0.1404103  -0.0011221  -0.1803711  -0.3994019   0.0699179
  -0.2447594   0.2336848  -0.5168779  -0.2443064  -0.1856143   0.0929905
  -0.2816684  -0.2526328   0.1492640  -0.1982663   0.2873181  -0.1286305
   0.0241736   0.1919516  -0.0946383   1.1910009   1.3884335   0.2642476
   0.7565464  -0.3700870  -0.4665737  -0.1259669   0.3384417   0.0461646
   0.0473863   0.8192320   0.7327462   0.1967083  -0.4055840  -0.4303330
  -0.1648920  -0.1536916   0.0715450   0.7959859  -0.2230978   0.5278512
  -0.1086508  -0.3818106   0.5669336   0.2936972  -0.0364463   0.1187147
   0.5197343   0.0153824  -0.0821865   0.1571844   0.0217612   0.9096546
   0.0327120   0.1021987  -0.0607212  -0.7767456   0.6326736  -0.6651432
  -0.9609742   0.4817962   0.4480908  -0.1333124   0.0859208  -0.1562981
  -0.7413222  -0.5638100  -0.4000793   0.3696983  -0.1885215   0.4301840
   0.2704713   0.1701089  -0.0674061   0.7547087   0.1075810   0.1010273
   0.2286716   0.2389149   0.1456524  -0.1358410  -0.0930164  -0.2492570
   0.2743659  -0.1688081   0.1473867   1.4628917  -1.5724343   0.1630320
   0.3940539   0.0992593  -0.0200124  -0.6120255  -0.2135045  -0.6579547
  -0.1449106  -0.3778038  -0.3948497   0.2311396   0.1011612   0.0370300
   0.8649233   1.0110881   0.7669468   0.3168125   0.1462525  -0.7393185
   0.0346006  -0.2566776  -0.4583016  -0.7521656   0.6190766   0.8266848
  -0.2672799   0.0353421   0.2553800  -0.0583226  -0.0588919  -0.3195188
   0.3491898  -0.6957867  -0.4069655  -0.1315471  -0.0031812  -0.2859600
   0.2121587   0.0597690  -0.0208798   0.7304374  -0.4248455  -0.2515906
  -0.1144016  -0.6481986  -0.1090446  -0.0762452   0.0541773  -0.3184794
  -0.0534920  -0.0193083   0.2520414  -0.1308243   0.0250273   0.2480291
  -0.0296408  -0.0515379   0.1626074  -0.0533321   0.5834533   1.1697524
  -0.2212363  -0.8292679  -0.3752666   0.0485207   0.0415211  -0.0953764
  -0.7629430  -0.3353619  -1.3234971   0.3546935  -1.8762465   0.1841957
   0.1348647  -0.0659840   0.0058703   1.2998332  -0.4930337   0.4289828
  -0.0791019   0.0472650   0.4262658   0.1171567   0.0494239  -0.2463097
   0.1064809   0.7285628  -0.2750667   0.5552639  -0.7186476   0.5135870
  -0.0715637  -0.1930894   0.2790362  -0.9292284  -0.7136921  -0.1872494
  -0.0909420   0.8136517  -0.4534019  -0.0937841   0.1890461  -0.0171743
  -0.9429333  -0.5693902   0.0556947  -0.9537392   0.8906628  -0.0395040
   0.3240115   0.2437669   0.1221365   0.6483187   0.2821271   0.4630124
   0.0989062   0.4915101   0.0274416  -0.0479580  -0.0868804   0.1405883
  -0.2262945   0.0325520   0.0031118   0.5899185   0.2657955   0.1392971
   0.1932706   0.1421337  -0.3575659  -0.2873357   0.1141212  -0.1641609
   0.0021206   0.0446741   0.0491680   0.3939781   0.1115123  -0.5011546
  -0.4441594  -0.3979290   0.1733254  -0.5496853   0.2365206  -1.0635527
   0.0930147  -0.1250914  -0.0478495   0.2133228  -0.2338664   0.0883935
   0.1064126  -0.8010068   0.6774386  -0.2093162   0.0418865   0.0335462
  -0.5135075  -0.1401309  -0.1819612  -0.2312336  -0.6005859   0.2972435
  -0.0166524  -0.1477963   0.2198775  -0.0136208  -0.0821345   0.1334993
  -0.1757211  -0.0243073   0.3355481  -0.1755808  -0.0011274   0.3140944
  -0.0608924  -0.4044367   0.2699511   0.0160712  -0.6634976   0.2328752
  -0.0856932  -0.2014686  -0.0060567  -0.4187252   0.4476783   0.0370563
   0.1384937  -0.8496168   0.2767694  -0.2729919  -0.0285120  -0.3886330
  -0.1535284  -0.1277804  -0.1844597  -0.2671318  -0.1191850   0.2879237
   0.0529466   0.1677624   0.0845822   0.5774489   0.8609375  -0.1490216
   0.8275439  -0.3767801   0.5623287   0.0553394   0.0561826   0.2279461
   0.3155790  -0.3023035   0.2682504  -0.0783878   0.0775959   0.6860532
  -0.0505059  -0.3904391  -0.2736413   0.8718020  -0.1380708   0.8900478
  -0.5816568  -2.8095492   0.7032141  -0.3337071   0.0537402   0.0284988
  -1.1699503  -0.9628824  -1.2033402   0.8509971   0.5033887  -0.2245591
  -0.0020757   0.4668114  -0.0163568   0.6714260  -0.3397975  -0.7003964
  -0.3195140   0.8319788   0.2605110  -0.1103285  -0.4268510  -0.1152771
   0.5400080   0.3695031   0.6126204   0.4000827   0.5058173   0.7083204
   0.0415193   0.0027546   0.0743674   0.1764779   0.1174252   0.3109165
   0.3490471  -0.1928911   0.5207657  -0.1152926   0.0068438   0.2064846
  -0.2107352  -0.0317026   0.5135828   0.0132058  -0.1571739   0.1150640
  -0.4873655   0.2961013   0.1144879  -0.4874843   0.3639509   0.1092486
  -0.4415949  -0.3940354   0.1879977  -0.2356987   0.0700790   0.1028757
   0.1012309   0.1726798   0.0251325   0.0659994   0.1296339  -0.0950710
   0.0822430  -0.0831944  -0.0652966   0.3207950   0.4494354  -0.0939665
   0.8887208  -0.2664471   1.0422071  -0.3980203   0.2127440   0.2803961
   0.5058092   0.4434607  -0.0439540  -0.2030434  -0.0013285   0.2535337
  -0.2535807   0.2082254  -0.1196842  -0.1750611   0.8679063   0.0268041
  -0.3788544  -0.9669141  -0.2627706   0.0385612   0.4005898  -0.1208284
   0.2046929  -0.5630552  -0.3326070   0.0835688   0.7284023   1.1190096
   0.1446676   0.2009923  -0.2763371  -0.8469184   2.0282413   0.2780893
  -0.4791271  -1.0021436  -0.2808717   0.2645726  -0.0517009   0.1101403
  -0.4427149  -1.2347364   0.7525331  -0.3110313  -0.1490685   0.9979042
   0.0850331  -0.0209407  -0.0260920  -0.4789897  -0.3447106   1.1410742
   0.0430920   0.7429310   0.7620032  -0.2063993  -0.2060954   0.4237362
  -0.4839616  -0.0282912   0.2179350   0.2185335   0.3709208   0.4284810
   0.0521170  -0.1898050   0.0356293  -0.3241295  -0.3856020   0.2108265
  -0.0460567  -0.2016111  -0.4578826  -0.0404328   0.0470761  -0.0173409
   0.2066800   0.0691068  -0.1554491  -0.5147037  -0.2139836   0.3512574
   0.1541328   0.0002310   0.0207120  -0.4074880  -0.6915607   0.4420153
  -0.1194994   0.2431420   0.9840149   0.1377536   0.1486341   0.0979924
   0.9566665  -0.0357032   0.7035931  -0.4496756   0.2895573  -0.3862106
  -0.2710588  -0.0805672  -0.1633376   0.2845253  -0.8480179   0.3714716
   0.1789461  -0.0645635  -0.2077831   0.1046531  -0.2828013  -0.1662975
  -0.2766351  -0.1853944   1.5197812   1.2824781  -0.1474937   1.2652806
  -0.1004396  -0.1614291   0.0338602  -0.5160986   0.4545658  -0.2022082
  -1.0566208  -0.7540806   0.1287473   0.3305628   0.1064082   0.2699083
  -0.0608221  -1.1015397   0.5074220   0.3521670   0.0593370   0.5767920
  -0.2022890   0.1358704  -0.0194828  -0.4084042  -0.3922312  -0.0071402
   0.3765910   0.2251641  -0.8679002  -0.1695912  -0.0456826   0.0307953
   0.3316177  -0.2553123   0.3880118   0.0319107   0.2951373  -0.1409647
   0.0044872  -0.2252365  -0.4764459   0.3132821   0.8946947   0.0022629
  -0.0602227  -0.3645954  -0.5450387   0.0200510  -0.0143501  -0.1035227
  -0.7756806  -0.5521640  -0.2008265  -0.4722575   0.3466567   1.3379214
  -0.1137519  -0.0142008  -0.2779406  -1.4476871  -0.6692030  -0.1460217
  -1.2272994   0.2183138  -0.0455658  -0.0978617   0.4718408   0.0357571
  -0.2684052  -0.9069178   0.5761338   0.4455445  -0.9335795   0.3845618
  -0.0917102   0.2345928  -0.2353462  -0.7983467  -0.8591570   0.2931467
   0.6492939  -0.6345856   0.2672401   0.4462135   0.4560031  -0.2222450
   0.7333963  -0.1353408  -0.6440444  -0.1233140  -0.0217871   0.4349798
   0.1140593   0.2400146   0.1727004   0.5461632  -0.9558249   0.1825350
  -0.6111339  -0.3912888  -0.2197669   0.1159453  -0.0633447   0.0284034
   0.3787911  -0.1773994   0.1438809   0.0616312  -0.0312046   0.1102924
  -0.3613903  -0.0244508   0.0430174  -1.1162303  -0.4179361   0.9790571
  -0.0298136   1.1864484   0.2661892   0.1877293   0.5312733   0.1591024
  -1.5447698   0.1264108   0.0235283   0.4921629   0.5560698  -1.1505120
   0.6024439   0.0867371   0.1523276  -0.9368723   0.0279044   0.0851287
  -1.2243394  -0.9001148   0.4036860   0.1532099  -0.3185438  -0.2768223
   1.2051219   0.2436219   0.2969342   0.1429896   0.0053314   1.2093915
  -0.0053690   0.1657288  -0.3065953   0.0204195   0.1374207  -0.4219398
   0.0120543   0.1446174  -0.4440579  -0.0806744  -0.0249810   0.2439249
  -0.0846344   0.1591811   0.0452945   0.7345939  -0.1124060   0.0754710
   0.0604940   0.0640315   0.3778432   0.9083796  -0.2971785  -0.1239896
  -0.2086676  -0.1799947   0.8418770   0.0682698   0.1405278   0.1686928
  -0.3722723   0.5240806  -1.8354608   0.4287477   0.1705559   0.6846856
  -0.4446959   0.2455039  -0.0560900  -1.3888384  -0.5509193  -0.2414834
  -1.6479251  -0.1850567  -0.1077629   0.0487007   0.1519193   0.0468423
   0.4308097   0.7232715  -0.0779407  -0.0655789   0.5259697  -0.0629086
  -0.0186974   0.2788450  -0.0862674  -0.3988916   0.0671626   0.5099052
   0.7403579   0.2658855   0.5645936   0.0814352  -0.1640899  -0.1149099
   0.5944907   0.0212187   0.0488051  -0.2983016  -0.4450373  -0.3822019
  -0.0451679   0.0858499   0.1140405   0.1088171   0.8593482   0.5858837
   0.0181621  -0.1314350   0.4008397   0.2233384  -0.0764331  -0.1830037
   0.2557682  -0.9428247   0.7835761  -0.5867329   0.0855609   0.0014344
   0.1716004  -0.0302878   0.0095378   0.0135853   0.1367981  -0.0129161
   0.8154587   1.3474875   0.0349041  -0.1809302  -0.4717124  -0.2197129
   0.1957793  -1.0388867  -0.2853324  -0.0585275  -0.0558254   0.1569359
  -0.2924996  -0.0255310   0.0429411  -0.4164505  -0.7180369  -0.6730165
  -0.1369231  -0.3958481  -1.1379613  -0.3236704  -0.1089215   0.1442196
  -0.2768217   0.9054464   0.5625689   0.1258940   0.0047463  -0.7560686
   0.3797299  -0.2112528   0.0332586   0.5453538   0.6908921  -0.0056491
   0.7224875   1.0406434   0.2263653  -0.3779878   0.0440827   0.3536876
   0.1220210  -0.2211163  -0.1017455  -0.6882622   0.5693007  -0.0255334
   0.4257759  -0.2810046  -0.0877891  -0.2544608   0.6502964  -1.6257644
  -0.4421663  -0.8458615   0.2076939   0.0436125   0.1350966   0.3010736
  -0.2500591  -0.7273394  -0.1001895   0.3080741   0.6315752   0.5934395
   0.0642198   0.0876729  -0.1641603  -0.4127942   0.6976765   0.3207448
   0.3445287  -0.6074242   0.5226984   0.2138146   0.3099384  -0.0917583
  -0.6106058  -0.1910414  -1.5942202   0.1651578   0.3308907  -0.3739534
  -0.0669634   0.2202815   0.0512939  -0.3263771   0.3134914   0.0902445
   0.3296925   0.1808546  -0.2852922   0.1627653   0.1125521   0.1081883
   0.0351022   0.3657923   0.1792209  -0.0609512  -0.1690134   0.2840939
   0.0035727   0.1527086   0.0612191  -0.1605270   1.0381390   0.2665636
  -0.9135009  -0.6112597  -0.8973314  -0.0802638   0.0947903   0.2181897
  -0.1695829   0.3311787   0.3394252  -0.3378936  -0.1148410   0.3902268
   0.2360989  -0.1675807   0.0663735   0.0462526   0.8182670   0.9359792
   0.3567908  -0.4406155  -0.6783896   0.1291956  -0.1369709  -0.2510530
   0.3458982   0.0221334  -0.5767451   0.1680542  -0.6415045   0.1114046
   0.4088904  -0.0284792   0.0968451   0.0117211  -0.2416042  -0.0873692
   0.8177593   0.1012516  -0.0935557   0.0934041  -0.0758228   0.0178686
  -0.3928950  -0.2565151  -0.0430261   0.2996438   0.4519407  -0.4380745
   0.0341926  -0.0257883   0.1909462  -0.0321807  -0.7101842   0.2058231
  -0.0319858   0.6554994   0.3034725   0.0543504   0.2384945  -0.1902892
   0.1395681  -0.0685404   1.3868154   0.1233622  -0.1526182  -0.0855079
  -0.0805702  -0.2518905   0.0001737  -0.2830522   0.4840024   0.7243109
  -0.0826501  -0.3576526  -0.6301210   0.0482442   0.1132975   0.0921672
   0.0144954   1.1784740   0.2116257  -0.4571554  -0.1398068  -0.9043657
  -0.2466464  -0.0025740  -0.0973044   0.2005780  -0.0249882   0.3836482
  -1.1237209   0.7660096  -0.0468790   0.2016903  -0.0764406  -0.0893818
   0.8775377  -0.2996335   0.5176013  -0.7033197   0.0462096   0.3805330
   0.0532561   0.3704074  -0.0462234  -0.1468366   0.4274374   0.0353270
  -0.0072361  -0.0122305   0.7166591   0.4721372   0.1508327  -0.1901847
   0.7886986  -0.3035806  -0.2716676  -1.1244978   1.1044936  -0.0437970
  -0.0801074   0.3117968   0.2114359  -0.0483137  -0.2817307   0.7035929
   0.1788865  -0.2672130  -0.4400280   0.0137425   0.4299133   0.0113180
   0.8753383   0.8999007  -0.0013474  -0.5122748   0.0378570   0.0504752
  -0.0649222   0.1736274  -0.2911409  -0.5765007   0.2193163   0.3135144
  -1.1266131   0.0335799  -0.2747076  -0.0128034   0.2499743   0.0583635
   0.9362416  -0.1057589   0.2581666  -0.0149008   0.8594320  -0.8709650
   0.0055086  -0.2020744   0.0273215   0.5460269  -0.7366992   0.7429652
  -0.6043113   0.2760070   0.2472651   0.0195255  -0.0601293  -0.0107633
  -0.0922961  -0.0824075   0.3741244  -0.1365528  -0.4893367   0.7799826
   0.2730923   0.2605354  -0.2332471  -0.0463225   0.9187969  -0.0081505
   0.6697327  -0.6106323   0.0325227   0.0364231  -0.3131927  -0.2605466
   0.9769263  -0.4701442  -0.1415075   0.1877745  -0.3626717  -1.0174165
  -0.0209675  -0.0161209  -0.2510365   0.1694612   1.0327514  -0.4948445
  -0.0897050  -0.5199625   0.1119210  -0.1177433  -0.3481849  -0.2969303
   0.5458381  -0.4797353  -0.0850821  -0.0263543  -0.9324934  -0.8934503
   0.0359134  -0.1034376   0.0937542   1.1593204   0.0647757  -0.3137595
  -0.8754912  -1.1588688   0.8716191   0.0772222  -0.1776898   0.3475339
   0.1407427   0.3261304  -0.0692662   0.1050069   0.0831239   0.3440210
  -0.2204626  -0.1125294  -0.3124701  -0.2429302   0.1633834   0.0593455
   0.4335467   0.1666874  -0.9028180  -0.1745926  -0.1217650   0.0108220
  -0.1910761   0.0778805  -0.5132143  -0.3344243  -0.8077496   0.6923172
  -0.1783309  -0.2572002   0.1324431  -0.5720307   0.9610648  -0.8154972
   0.0000419  -0.9464376   0.4956472  -0.1686747   0.0963493   0.0399748
  -0.2444887   0.8295356   0.1035417  -0.1991311   0.4193691  -0.1706844
   0.1605504  -0.2833893  -0.3508493   0.3861629  -0.3741273  -0.0431269
   0.3783022  -0.0878068  -0.6205459  -0.0167101   0.2337574   0.0721565
   0.6056699  -0.2536431  -0.6692756   0.6585791  -0.0296558   0.1092497
  -0.0288829  -0.1576464   0.0662811   0.3787804  -0.5230686  -0.2148957
   0.1982805   0.0818140   0.3452058   0.1763048  -0.1290829  -0.1147275
  -0.7433212  -0.3550628   0.2604128   0.1154124   0.3754420  -0.3386358
   0.1530633  -0.0669317  -0.4136747  -0.8709636  -0.6666548   0.4776658
   0.1164925   0.4571582   0.1422207   0.2625177  -0.2880214   0.0127408
  -0.8428858  -0.7387335  -0.0170035   0.0022779   0.6503415   0.4826784
   0.0884346   0.1781396   0.0072828   0.7431565   0.3785008  -0.1106122
  -0.7337605  -0.7548020  -0.5289466   0.2759527  -0.2809931  -0.1903006
   0.3857655  -2.4775116  -1.8544172   0.1221610   0.9344333   0.5539267
  -0.0847691  -0.2495368  -0.0211361   0.1878018   0.5399161   1.0260205
  -0.4792119   1.2808878  -0.6164220  -0.1692516   0.0394367  -0.0304933
   0.1796125  -0.0040034  -0.5195856   0.1115642   0.4696611  -0.4787792
  -0.2246975  -0.0569163   0.0717068   0.3779348  -0.5865701   0.3249896
  -0.7922473   0.4542576  -0.0576690   0.1321849  -0.0741119  -0.0227208
  -0.3922041  -0.0854775   0.6848477   0.1978373  -0.7244451  -0.4943128
  -0.1355814  -0.0805040  -0.0332021   0.4873702  -0.1050755  -0.1683942
  -0.2154879   0.1089025   0.5659035   0.0678543  -0.1346518   0.3247635
   0.1227468  -0.3402693   0.2252975  -0.2153611   0.5411025   0.7587642
  -0.0272863  -0.0314545   0.0506351  -0.1775173  -0.5525842  -0.8224589
   0.7696934   0.5946800  -0.1389227   0.2665879  -0.0971726   0.0385771
  -0.3157934   0.6325316   0.1271058  -0.3324293  -0.2538332   0.0171725
  -0.0794668  -0.2677972  -0.1771858   0.4388850  -0.3224196   0.1623057
   0.0161542   0.2554841  -0.1144444   0.1201134   0.0110347   0.2243288
  -0.0946476  -0.0472243   0.6111865   0.0163538  -0.0396964   0.3419214
   0.3775458   0.0477200   0.1818309   0.3413156  -0.9659194   0.0671251
   0.2079908  -0.2395284  -0.0736419   0.1690077  -0.1501129  -0.1054718
   0.2500491  -0.2892355  -0.2312965  -0.3436973   0.4748514   0.5044342
  -0.0134214  -0.0490938  -0.1378045   0.1391139  -0.2211173  -0.3081596
  -0.1776854  -0.2271926   0.0176548  -0.0408592  -0.0643161   0.1443839
   0.6900051   0.6403578   0.0181451  -0.7942712  -0.5555053   0.4695051
   0.3600787  -0.1314017   0.0346670   0.3123372   0.1290421   0.4487362
   0.2689928  -0.1286024  -0.3717818   0.0932392  -0.0767134  -0.1321430
  -0.9210258  -0.5805001  -0.8659087  -0.6424569   0.7210804   0.5480986
   0.0900067   0.0558736   0.0717896  -1.2227784  -1.7545837   0.4100857
   0.4916545   0.1644279  -1.2095096  -0.0536292   0.0565195   0.0077609
   0.0488726   1.2537863   0.3425154   0.2576403  -0.6959834  -0.2215473
   0.2794640  -0.4244605  -0.0466805  -1.8438042   0.2670632  -0.3259841
   1.2302420  -0.9732051   0.3759460   0.2958819  -0.2644652  -0.0429677
   0.6747894   0.2529655  -1.2242659  -0.0174476   1.0273086  -0.3913555
  -0.0072744  -0.2002264   0.2778359  -0.3469453  -0.3786082  -0.4335137
  -0.1397720  -1.2397498   0.7552781  -0.0272980   0.0467350   0.0012198
  -0.0845578  -0.3511333   0.9484327  -0.2533776   0.2359194  -0.0844620
  -0.1610831  -0.0204033   0.0624799  -0.8238432  -0.1360157  -1.2053592
   0.2950334  -0.5977783  -0.1393387  -0.0525786   0.1180729   0.0946190
  -0.3040343   0.3677670  -0.1135783   0.6381294   0.0450169  -0.1322262
  -0.0512147  -0.1055785   0.1652392   0.2345797  -0.3122151   0.1298659
  -0.0602615  -0.1604846   0.2234511  -0.0782627  -0.1064287  -0.1887901
  -0.0763132  -0.1011224  -0.1704117  -0.4227219  -0.0411480  -0.5864066
   0.1667336   0.1174647   0.0281036   0.1076437   0.4624041  -1.1680558
   0.2382100   1.2732674   0.3985891  -0.0508002   0.1451296  -0.1876081
  -0.0683402  -0.6526404  -0.0010482  -0.6423968  -1.5385400  -0.5707208
  -0.0512729  -0.0036578  -0.1074505  -1.2168071   0.8385409  -0.2121457
  -0.5715667   0.0105575  -0.3262234  -0.0593587  -0.0687326  -0.1383571
  -0.0579115  -0.7679029   0.1436730  -0.3557884   0.3922615  -0.4536783
   0.0786355  -0.1506185   0.0557233  -0.3290594  -1.1074843   0.5298402
  -0.0439528  -0.4431316   0.2200324  -0.4022033   0.0023472   0.2698379
   0.2941719  -0.9194302  -0.7827439   0.8971329   0.4955963   1.8183231
   0.0282331  -0.1753590   0.0118648   0.0872322  -0.9382621  -0.0325012
   0.1493127  -0.0067405   0.7679367  -0.0447825  -0.0144714  -0.0989652
   0.8767711   0.0188590  -0.2707855  -0.1562713  -0.1136703   0.0532081
   0.2740146   0.3062705   0.0523251   0.8344242  -0.8573122  -0.3706124
  -0.7415631  -0.1141325   0.5288597  -0.2500903  -0.2082750  -0.0185929
   0.3773456  -0.6396284   1.1538114  -0.0181877  -0.3465876   0.3188093
  -0.1298173   0.0113256  -0.0938554  -0.7331315   0.5451770  -0.9971768
   1.2062687  -0.4480303   0.0781607  -0.1700926   0.2120418   0.5710913
  -0.3272377  -0.0115130   0.6605232   0.2267210  -0.1348606   0.5618992
  -0.1625834   0.2977622   0.5727867  -0.6278154   0.3060070   0.4307549
   0.3895570   0.2084902   0.6516117  -0.1903293   0.0665123  -0.2924575
   0.6446086  -0.7356288  -0.1364448  -0.5679940  -0.1001457   0.1763711
  -0.1322013   0.0169406  -0.5076680  -0.0460060  -0.0535672  -0.3562388
  -0.0612476   0.1310054   0.7690368  -0.1270452  -0.2927583   0.0758011
   0.3114917  -1.7160664  -0.5708163   0.5918172  -1.3615246   0.7541665
  -0.3123767  -0.1455729  -0.0168954  -0.1422385   0.0171510  -0.2659375
  -0.1776504  -0.2385744  -0.0150900   0.0680890   0.1181351   0.0464136
   0.0470339  -0.1077760  -0.2434601  -0.4543125   0.0395893   0.5372406
  -0.1391222  -0.2155343  -0.0501769   0.1759320   0.3844521  -0.8287616
  -1.4078477   0.1615293  -1.0607158   0.0709811   0.1080096  -0.1379881
  -1.2291887   0.2004265   0.2869110  -0.4114430   0.2792748  -0.8498013
  -0.0848053   0.2009896   0.0979220  -0.3582060  -0.4314548   0.1116231
   0.4685571  -0.4186766   0.5816740   0.0535044   0.1678135  -0.0702091
  -0.1592433  -0.9269332   0.5232555   0.9869171   0.7839181   0.5236016
  -0.1764371  -0.1926069  -0.0018375  -0.6753810  -0.0040077  -0.3037845
  -0.1979202  -0.2063112   0.0824177   0.3011355  -0.2236637   0.1181655
   1.3162040   0.2570409   0.0073867   0.6739531  -0.2610159  -0.1533680
   0.0077487  -0.2244449  -0.2064803  -0.4873377  -0.6056827   0.2301316
   0.2011609  -0.2295449  -0.3316531   0.0018016  -0.3804651  -0.1309312
   0.3103823  -0.1938332  -0.4306210   1.3189194  -1.0261964  -1.1332343
   0.3139572   0.0642929  -0.3579233   0.2517881   0.1068549  -0.3546707
   0.1796271  -0.4171748  -0.0386704   0.3530287   0.2058072   0.2152940
   0.3643548   0.2833203   0.1172878   0.3479376   0.1372957   0.1354123
   0.1650379   0.3133559   0.0233719  -0.1830211  -0.9038807  -0.6168317
  -0.2558457  -0.9401568  -0.2089414   0.4041880  -0.1202229  -0.0260985
   0.5501591  -0.2857088  -0.1128224  -0.1865220   0.7889234  -0.5036549
  -0.1750054  -0.1504094  -0.1339114  -0.2271291  -0.3950468   0.0032627
   0.4886929   0.5308685  -0.1734274   0.3272083   0.2493227   0.0964220
   0.4970861   0.1192784  -0.5122652  -0.6539114   0.0729081  -0.4722807
  -0.1437422   0.4527219  -0.1574095   0.0321497   0.9984167  -0.8390463
  -0.1578195   0.0391542   0.4957803   0.1758764   0.0995046  -0.1651524
   0.4986377   0.6218094  -0.0939110  -0.2593282  -0.3945912   0.4018781
   0.1862625  -0.2571033   0.1528151   0.1906560  -0.2095878   0.2154961
   0.2965778  -0.6527515  -0.9189005  -0.0504324  -0.0251464  -0.0338275
  -0.7928131  -0.1116090   0.2254203  -0.4664237  -0.1589460   0.0755315
   0.0143242   0.1243778  -0.3842647   0.1014040   0.5478187  -0.2456569
   0.3399621  -0.1321663  -0.1898989   0.2221726  -0.2171947   0.1761258
   0.4955901  -0.4145794   0.4740615   0.1658042  -0.4268938   0.2781410
   0.0433728  -0.0934983   0.0194548   0.0348952   0.0736573  -0.1437406
  -0.1128045  -0.2583298  -0.0681724  -0.1520293  -0.0495829  -0.1888378
  -0.7907668  -0.3660899  -0.5420379   0.4739147  -0.5027634  -0.3210495
  -0.0626161   0.2860323   0.0174567  -0.0323776  -0.1569097  -0.7809098
  -0.9631946   0.0534516   0.4806380   0.0145085   0.1069526   0.0428844
   0.2477503  -0.2259230   0.1454583   0.5358013  -0.3314468  -1.6249649
   0.1603923  -0.0529093   0.3072089   0.2672304   0.2780762  -0.1073227
  -0.5227393   0.1491540  -0.0449832   0.1277587  -0.1102386   0.0397803
   0.6282261  -0.1442573   0.1180684   1.2728588   1.0664547   0.3016690
  -0.1204119  -0.0775823  -0.0387437   1.0589071  -0.2305390   0.5724877
   0.5385080  -0.8093511   1.3353781  -0.0171379  -0.1561188  -0.1608976
  -0.3387936  -0.1717312  -1.1186021   0.2200684   0.0884649   0.3643521
  -0.0657656   0.4470592   0.0265764  -0.8184209   0.0968902  -1.0038893
   0.3100566   0.5418428   0.4251398  -0.1260666   0.1186793   0.1022726
  -0.6215302   0.8316456  -0.6373548  -0.0944092   0.0780920   0.1469758
   0.0810278  -0.0096088  -0.3237953  -0.4280591   0.2739716  -0.5641678
  -0.0768744  -0.7414598  -0.3047111   0.0254389  -0.2027919  -0.1274438
   0.4371269  -0.5258129  -1.0014946  -0.4490286  -0.1033714  -0.7692469
  -0.2914444  -0.0009445   0.2417146   0.0133128  -0.3198292   0.3419770
  -0.5223306   0.4380676  -0.0623293  -0.0993108  -0.1884241  -0.2563180
   0.6167626  -0.7792766   0.1220451   0.3659088  -0.6517587  -1.0069920
   0.3056822  -0.2736802   0.0534952  -0.4376842  -0.4797921  -0.3532351
  -0.2950691  -0.7934130   0.3087522   0.1400132   0.0262741  -0.2242665
   0.8031232  -0.4777728  -0.5616366   0.0939411  -0.3284492   0.0211843
  -0.0050717   0.1487035   0.0385951  -0.0364267   0.1445956   0.0098140
  -0.1051179   0.1417873  -0.0644340  -0.2660638  -0.1244164  -0.3473161
  -0.2769433  -0.8870672   0.0051580  -1.2986352  -0.1512766  -0.8415518
  -0.1971544  -0.1863992  -0.1813012  -0.7657909   0.8980872  -0.7467003
  -0.7647708   0.5560989   0.1774061  -0.3124893  -0.0959057   0.1013056
   0.2615363   0.4787897  -0.1160625   0.1668562   0.7606717   0.3447896
   0.1445293  -0.1001673   0.0994458  -0.9174517   0.3244052   0.1586749
  -0.5157770  -0.8363192   0.1799539  -0.0995870  -0.1336665  -0.1530872
  -0.0142899  -0.3463674  -0.1733278   0.0459762  -0.1350291   0.0727334
   0.2012754  -0.1518505   0.0813900  -0.0917023   0.4261444  -0.9337653
  -0.0381451   0.0081950   1.0475639  -0.2386380   0.1785750   0.1776704
  -0.1984103   0.0609561   0.1702707  -0.2578616   0.6078780   0.0602607
   0.0688231   0.4275659   0.1282557   1.3006891   0.9874910  -0.6869242
  -0.8637172   0.3109087  -0.6678150   0.2812406   0.2800956  -0.1681764
  -0.1127680  -0.6986165  -1.0945950   1.5223363   1.0457952  -0.2943307
   0.1143350  -0.2304359  -0.2038612   0.2382210  -0.8960494   0.0071395
  -0.3507195   0.7167920  -0.3746316   0.2976404   0.1060892   0.2572269
   0.9506955   0.8339059   0.3599443   0.3434184   0.9454071   1.3321968
   0.1520481  -0.1270675  -0.1105064  -0.0253215   0.7126607  -0.2943103
  -0.6852280   0.4445292  -0.2569573   0.1045283  -0.1349064   0.0167212
   1.0634257   1.2213807  -0.6854999  -0.0223763  -1.4733958   0.2768618
   0.2736878   0.0385010  -0.0955810   0.2283973  -0.7497458  -0.4191770
   0.1119785  -0.5174154   0.2828708  -0.0361808   0.1908171  -0.0757505
   0.2118352  -0.0583748  -0.0323544   0.2103632  -0.6237174   0.3975830
  -0.2478374   0.2288126   0.3634485  -0.0116087  -1.0494648  -0.6918547
  -0.6671609   0.8580101   0.3121086   0.0482437  -0.1969575   0.0917934
   0.9329334  -0.3106985   0.5539973  -0.3010905   0.5084469   0.4711579
  -0.4954337  -0.0166081  -0.0859918  -0.3027043   0.1241214  -0.1613094
  -0.7482432   0.0112251  -0.2545212  -0.1606650   0.0786338   0.0154430
   0.9867702   0.2827810  -0.3092323   0.1830586  -0.0975638   0.1335760
   0.2354849  -0.0718312   0.0885485   0.3115863  -1.3201322   0.2400750
  -0.5599044   0.2873448   0.7699805  -0.2194285  -0.2018480  -0.0687113
   0.7061881  -0.1056448  -0.2178233  -1.0421423  -0.0216466   0.0269508
   0.0808157  -0.2011455   0.2272000   0.0157615  -0.2182010   1.1213482
  -0.4388078  -0.7633270  -0.6462698   0.3304600  -0.1599225   0.2172983
   0.8983272  -0.2896211  -0.2933612  -0.1972560  -0.7607772   0.0652810
  -0.0622345   0.1281254   0.2744313   0.4760396   0.0077779  -0.9625074
  -0.0699903   0.1393663   0.2961138  -0.0996161  -0.0001684  -0.1426385
   0.2984600  -0.0286708  -0.9198271   0.4582381  -0.1863086  -0.9432636
  -0.2263718  -0.2424034  -0.1253954  -0.2287746  -0.6052307  -0.0520238
  -0.2333020   0.0225889  -0.1271665   0.1463996  -0.0714221   0.1861772
   0.4097013  -0.6192723   0.8836193  -0.6971558   0.2616481  -0.4755318
  -0.1348426  -0.1020499  -0.2869663  -0.0759396  -0.1537965  -0.0647809
  -0.6483925  -0.9846726  -0.2227070  -0.1922806  -0.1326335   0.0201090
  -0.7969685   0.1828562   0.0479441   0.0304810   0.1621680  -0.2094058
   0.0369508   0.2889349  -0.0765357  -0.5469545   0.7879358  -0.4058819
   0.0188730   0.4878343  -0.0800254  -0.1711288  -0.0887369  -0.3497224
  -0.2480531   0.3562468   0.2445543  -0.3966322  -0.6164034  -0.7152699
  -0.1025440  -0.0494124   0.1518623   0.6174415   0.2205035  -0.1052516
  -0.7168222   0.5883675   0.4661930  -0.1267247  -0.1999119  -0.3853596
  -1.4472357   0.7956438  -1.2200113  -1.8235563   0.3715142  -0.6463560
  -0.0537462   0.0979944   0.1379019   1.5576648   0.0051809  -0.3466179
  -0.9633794  -0.0203490   0.6138869   0.2027702  -0.2084121   0.2750103
  -0.1539720  -0.5140512   0.3492385  -0.3047630   0.3109435  -0.1001674
  -0.1691190   0.1342714  -0.0800081  -1.0518273   0.3077627  -0.3818952
   0.6788019  -0.2548086  -0.5361640  -0.0387277  -0.2564563  -0.0025782
  -0.2913134  -0.8046410   0.1908395  -0.1332367  -0.3590194   0.1948523
  -0.0475896  -0.1687373  -0.0737291   0.2317099  -0.0242581   0.3149830
  -0.3947395  -0.3871035  -0.5938739   0.0706850  -0.0617590   0.0784910
  -0.1036244   0.4155147  -0.1070916   0.1496115  -0.1252852  -0.3471301
  -0.2932743  -0.0616354  -0.0345952  -0.3038558   0.4722832   0.5507026
   1.0632588  -0.7986017  -0.1393143   0.2532975  -0.2845525   0.0003585
   0.2958227   0.3656743  -0.1444107   0.1325759   1.6196662  -0.5634148
   0.3386898  -0.0555336  -0.1506055   1.6358389  -0.2167398  -0.3859516
  -0.0083852   0.1039984   0.2808423  -0.3673133  -0.0724665  -0.2894367
  -0.7248367   0.6570798  -0.0144901  -0.4565152   0.1188391  -0.2159801
  -0.2220308   0.0321555  -0.1052646   0.4563386  -0.1396687   0.9862470
   0.0390985   0.3438700  -0.4483465   0.1996181   0.0245855  -0.2865114
  -1.0991040   0.0266559   0.1149938   0.6991278   0.1927030   1.0015690
   0.0449578   0.2542207   0.0545509   0.6950959   1.1617982   0.1300562
  -0.8502349   0.1280780   1.0088924   0.1132707  -0.3507181   0.2136653
  -0.3169685  -0.8569061  -0.3749044  -0.4139784  -0.8240997  -0.8400442
  -0.1016172  -0.0838480  -0.0381081  -0.5833930   0.3286642  -1.1031703
  -0.1504021   0.2708987  -0.2973790  -0.3480117   0.1804413   0.0463590
  -0.6559530  -0.0077685   0.1367077   0.0563853  -0.1702357   0.5071139
  -0.0389330  -0.0070189   0.0151066   0.0750008   0.8783212  -0.4119285
   0.7856923   0.4947862   0.5806184   0.0994953  -0.0104971   0.0539177
   0.0893343   0.0286633  -0.1364833   0.0796188   0.4714321   0.0985091
   0.1339206   0.4792983   0.3474370  -0.0399339   0.4805766  -0.1175312
   0.4216416   0.5336246   1.2608934  -0.1793754  -0.0799696   0.1551559
   0.4381804  -0.3376135  -0.7313074   0.5539707  -0.3666885  -0.9343794
   0.0257229   0.0142772  -0.3535479   0.4621983  -1.0739842  -1.5382305
   0.4301427  -0.3108986  -1.1636681   0.2444101  -0.1534404  -0.1110660
  -0.2598975   0.7308879  -0.1854844   0.7646597   0.1427923  -0.3599983
  -0.0554936  -0.2085012   0.0349875   0.0607491  -0.7949157  -0.2973468
  -0.2135001  -0.2762116  -0.3597644  -0.0769624   0.2063614  -0.1249578
   0.9035055  -0.8374597  -0.1754797   0.5714611   1.0368849   0.5198691
  -0.0523393   0.0195849   0.1863367   0.3905526   1.2475504   0.2912948
   0.9523918  -0.4280144  -0.3974496  -0.1849693  -0.2208092   0.0126320
   1.0595894   0.2858176   0.2561312  -0.4255447   0.7220081  -1.1007600
   0.3100928  -0.1257280   0.0157267   0.8326891   0.0638073  -0.3954523
   0.7339590   0.0605833  -0.3246506   0.1452300  -0.1783191  -0.0880583
  -1.1220903   0.7601496   0.4670614   1.0347830   1.0489616   0.3612756
  -0.0373679  -0.0882948  -0.0190252   0.5822108  -0.6422362  -0.6160029
  -0.5504663   0.8009240   0.2314144  -0.1878691   0.2218818  -0.1080541
  -0.6379678  -1.0631865   0.1281064  -0.2900998   0.8511690  -0.3246648
  -0.1604889   0.1935477  -0.0002600  -0.2609207   0.9215844  -0.0166189
  -0.0695218   0.8203457   0.0028539  -0.4184894   0.2888752  -0.2145010
  -0.9957501  -0.0355652   0.4333738  -0.0497673  -0.0042048  -1.1469491
   0.3057520  -0.1390981  -0.0540347  -0.5002582  -0.1927474   0.1718813
   0.6474870  -0.1756246   0.6368559   0.2178128   0.1712588  -0.0429455
  -0.2475379   0.2288085   0.2817318   0.1438613   0.2324656  -0.3223686
  -0.0011965  -0.1231084  -0.3829820  -0.1927972  -0.1962006   0.0430186
  -0.2456110  -0.2209389   0.1282430  -0.0111635   0.1640546   0.1724694
  -0.3998016  -0.2586914   0.7258011   0.0850011  -0.0226188   1.1739665
   0.1414700  -0.2679244  -0.4347344   0.4642594   0.2730833   0.0732853
  -0.3103190   0.1109062  -0.4556323  -0.0108935   0.4432387   0.1715364
   0.5837077   1.5691442   1.0321376   0.1906087   1.0724937   0.3940187
   0.0063448   0.1384530  -0.2997800   1.6362396  -0.6490825  -0.2277247
   0.6417472   0.4573273  -0.5628212  -0.1304066   0.0319374   0.0716516
  -0.4220739   0.0481784  -0.2032656  -0.6537416  -0.0400977  -0.6406602
   0.0018302   0.3515772   0.3332298   0.0908071  -0.2003557   1.2966288
   0.1013864   0.4023643   1.4610301  -0.1404030   0.2612560   0.0680426
   0.6332414  -0.8318855  -0.1719009  -0.3336869   0.7051615   0.2298704
  -0.3750608   0.1448082   0.0252525  -0.1853731   0.2750425  -0.0030297
  -0.2460736  -0.0362360   0.1697413  -0.1176540  -0.0638875   0.3219139
  -0.4889862   0.0962104   0.2262047  -0.0095515   0.5119470  -1.0224179
  -0.0440264  -0.2359136  -0.0828200  -0.2567335  -0.1951228   1.1411737
   0.9461328  -0.1609529   0.1868637  -0.2202918   0.0487644  -0.0429467
   0.3751149   0.3871596   0.0449413  -0.0148133  -0.4608593   0.5607836
  -0.0482141   0.2735046  -0.1094949   0.1546567   0.5891658   0.3771115
   0.3651468   0.3998755  -0.5954255  -0.0786790  -0.3256804   0.0534718
   0.8895308  -0.1278629   0.0861920  -0.6839150  -0.1714272   0.3331734
  -0.2096653   0.3636965  -0.0213187   0.4886529   0.8925173  -0.2416561
  -0.1244535  -0.1360081  -0.6267170   0.0526094   0.0235781  -0.1126720
   0.0947865   0.1104365  -0.0577516   0.0426687  -0.0636876   0.2915461
   0.0902127   0.2304216  -0.1730150   0.4624734  -0.7418375   0.0783566
  -0.1289473   0.5778342  -0.7446713  -0.2289031   0.1098484  -0.1393541
   0.3421947   0.7991577  -1.1237478  -0.1557846   0.2242127   0.3697594
  -0.2798615   0.1908160   0.1705353  -0.2821871   0.0285155  -0.4230846
  -0.1818915  -0.3454367  -0.2685622   0.1409168  -0.1258391  -0.1557528
   0.1707555  -0.3154377  -0.3534848  -0.8036988  -0.4458300  -0.6862393
   0.1423985   0.0749946   0.0987992   0.8507856  -1.5204746  -0.1569063
   0.3928056  -0.4475206   0.0030446   0.0533130   0.1322450  -0.2457939
   0.2645491   0.5486433   0.2059412   0.5069263   0.6438977   0.2587958
  -0.1693572   0.3439066   0.1667470  -0.4115817   1.2634104   0.4035439
   0.5142832  -1.4226317  -1.5601905   0.1850086  -0.1036699  -0.2945678
  -0.1043934  -2.0339031  -0.6294558   0.8549248   0.1248403  -0.6712368
  -0.0946605  -0.0989867   0.2741674   0.1695640   0.1726799  -0.4764835
  -0.3046471  -0.0413435   0.3715922   0.1347973  -0.3739557  -0.0386087
  -0.0595844  -0.4894004  -0.3499554  -0.0622734  -0.1683067  -0.0549741
   0.0803622  -0.2710958  -0.4134738  -0.5150442   0.0432195  -0.5499383
   0.5387541   0.8010007  -0.1614653  -0.0506904   0.1224160  -0.1885337
  -0.2571927   1.0223501  -0.1221597  -0.3801507  -0.3610219  -0.0140968
   0.1908224   0.0115158  -0.0072174   0.4303490  -0.1190292   0.3882662
  -0.1014394   0.4650968   0.0797758   0.2502003  -0.1919965   0.0267419
  -0.2299637   0.4154006  -0.5871818   1.0609665  -0.0872816  -0.8833358
   0.1270353   0.1221190   0.1814792   0.7633186  -0.7832431   0.4378905
  -0.0417094  -0.0598347   0.7475826  -0.1147682  -0.0632324  -0.1669381
  -0.0930385   0.5075509   0.2413826   0.0392343  -0.7646190  -0.4750572
  -0.0179935   0.0769374  -0.2173289   0.0840769   0.8391658  -0.0904174
   0.1334629  -0.4188634   0.5659453  -0.1631778   0.0647368   0.0172251
  -0.1490594  -1.1732682  -0.4483626  -0.1582744   0.9839463   0.5857003
  -0.1497421  -0.3259807   0.3064745  -0.1984283  -0.6343502  -0.3876454
  -0.7298616   0.2243015   0.2827117  -0.0527180  -0.1509291  -0.1368353
  -0.3404917  -0.7475421  -1.2244344   0.2685862  -0.7315644   0.8561722
   0.0916578  -0.0529391   0.2117658   0.7886284  -0.4429358   0.3251790
   0.1498665   0.6425926  -0.1366221   0.0080123  -0.4866588   0.0278136
  -0.4099743  -0.3834538  -0.1969634  -0.0922965  -0.4885632   0.9164230
   0.1245741  -0.1079263  -0.2759882   0.3459641   0.4839746   0.0911526
   0.0306589  -0.2127286  -0.5660991  -0.0841899  -0.3079448   0.3649347
   0.5004500  -0.2273433   0.0775000   0.6584723  -0.3877396  -0.6164047
   0.2999232  -0.1489951   0.0608195   1.3025698  -0.2082108  -0.5151232
  -0.6170948  -0.1809753  -0.5725257  -0.1348116   0.1613691   0.1928232
  -0.7728248   0.4083287  -0.5307868  -0.3970561   1.4717893  -0.3754869
   0.2461507   0.0039229  -0.0857903   0.1986849  -0.1385966  -0.5071464
   0.3377218   0.0717533   0.3285209   0.3531289   0.3473117  -0.0133563
   0.0855853   0.4371241   0.0771820   0.6422400   0.1363213  -1.3696753
  -0.0205686  -0.0916208   0.1628446   0.1188933  -0.5484455  -0.2326738
  -0.0983039   0.2869552   0.5609474   0.3077854  -0.2869559   0.0152267
  -0.2041258   0.7313405   1.0209211   0.4742640  -0.3468620  -0.6913951
  -0.0787542  -0.1096548   0.0738066   0.3289589   0.1818765  -0.1029173
   0.6146413   0.3389594  -0.2710300  -0.1531496   0.1834366   0.1698027
   0.1493204  -0.5186707   0.5285081  -0.4443994   0.5498980   0.9232111
  -0.0399232  -0.3326933   0.1818329   0.7687205   0.1771725   0.6490078
   0.4412345   0.0171105   0.4745824  -0.0894082   0.2786341  -0.0052960
  -0.7262459   0.3499902  -0.1215465   0.9459625   0.2484150  -0.6124632
   0.1677652  -0.0389461  -0.2224027  -0.1469137  -0.2627914  -0.5811974
   0.0107704  -0.3532634  -0.5124450  -0.0541725   0.1489711   0.1455757
  -0.1462135   0.3341895  -0.5277118   0.8950253   0.1340369   0.7278540
  -0.4200311  -0.3134873  -0.1470765  -0.0821147   0.7117903   0.7823034
  -0.4065966   0.0251742   0.2365944  -0.0389405   0.2899616   0.0568392
   0.0255590  -0.5458694   0.4469030   0.3976212   0.4488017   0.3825483
   0.2293056  -0.1547024   0.1961080   0.1265674  -0.8720336  -0.1034996
   0.1107231   0.8348887   0.2739974   0.1524705   0.3186077  -0.0305767
  -0.0325677  -0.5804439  -1.5300027   0.2210236   0.5664924   0.4228834
   0.1757297   0.0462676  -0.0616454   0.2945574   0.0308802  -0.0224635
  -0.4717593  -0.4425567  -0.6475990   0.0070500  -0.0647968   0.0830969
   0.0364312   0.0027018   0.1307877   0.0986206  -0.0512520   0.0379051
  -0.0228472   0.1384572  -0.4188356   0.6276531   0.3595879   0.8074221
   0.1386443  -0.8856515  -0.2090699  -0.0648602   0.0742837  -0.2869961
   0.2478923  -0.1729229  -0.5707189   0.5106328   0.2512196   0.2803695
  -0.0044379  -0.0237883   0.1943745   0.8242892  -0.0906468  -1.1101139
   0.2985819   0.4370793   0.6410293  -0.1925944  -0.0003747  -0.0623174
  -0.1538370   0.3339836   0.1761556  -0.1825204   0.3865191   0.1150371
  -0.0725965   0.0318431   0.3585674   0.4279820   0.1588072  -0.0734091
  -2.0341304  -0.0828665   0.4766984  -0.1590456   0.0405035   0.0824150
  -1.0615829  -0.0500856  -0.0986459   0.0101775   1.7061086   0.1975554
   0.0865921  -0.2499589  -0.1882832   0.2272495  -0.6926074  -0.6062153
   0.4543841  -0.6497253  -0.4942433   0.0615425  -0.0405544   0.1638887
   0.1124578   0.0250977   0.3485321  -0.0979456  -0.0451189   0.1321812
  -0.0117396   0.2196462  -0.0058983   0.4040082  -0.8904380   0.8438616
  -0.1728617   0.5563040  -0.2984860   0.1825111  -0.2225002  -0.0337509
  -0.0652840   0.2995508  -0.4280787  -1.0599119   0.4578609  -0.7726068
   0.4258622  -0.0730136  -0.3313917  -0.0730058   0.3029249  -0.7180548
   0.8446133   1.0370391  -0.1000473   0.2497188  -0.1613023   0.2396856
  -0.1225350   0.1556173   0.6955760  -1.0642181   0.2211993  -0.0483140
  -0.1519240  -0.2550329   0.4391614   0.4757793  -0.3614263   0.4154371
  -0.6693791  -0.1622579   0.5070448   0.3667836   0.1513893  -0.0975853
   0.7801731   0.5297744   0.2450443  -0.4418070   0.1585056   0.0706173
  -0.0395410  -0.0475415  -0.0117011  -0.6908095  -0.6998577  -0.5268988
   0.4690979  -0.3699073   0.7715688   0.3353006  -0.1097149  -0.1254980
   0.4494678  -0.3306173   0.4708541  -0.2223894  -0.2431759  -0.7162575
  -0.1573500   0.0771282   0.2820829  -0.1596882  -0.0214400   0.2387275
  -0.1466217   0.1000749   0.2317869   0.0255514   0.1394511   0.3725915
   0.6008339   1.0125885   0.3801446   0.1611468  -0.9908119   0.5814117
   0.1126039   0.1762425   0.1349050  -0.3549053  -0.2828087   0.7495585
  -0.0873468  -0.4931925  -0.2515834  -0.4100389   0.0308216  -0.0022079
  -0.7545891  -1.0444058   0.1128915  -0.9073494   0.6532737   0.8697003
   0.2630544  -0.1171007  -0.0389272   0.3452544   0.9496339   0.6607268
  -1.3576623   0.2076305  -0.0098383   0.1825896  -0.1985259  -0.0437589
   0.2911016   0.1114757   0.4865540   0.5018689  -0.3707227  -0.5065235
  -0.0030838   0.1211659  -0.0174162   0.0646330   0.0770984   0.1487346
  -1.4941143   0.1768723   0.8307099   0.0419677  -0.0766690   0.0287583
   0.1789260  -0.7354676  -0.4297675  -0.7329251   0.6776140   0.3015294
  -0.2164744  -0.2007625  -0.0806925   0.0248579  -0.4771899   0.3146009
   0.0947880  -0.0196838  -0.2236509  -0.1101723  -0.1289113  -0.0858673
  -0.1853083  -0.7735122  -0.5152120  -0.0438717   0.2872797   0.1932605
  -0.0830340   0.0779212  -0.1164025  -0.8797513   0.1706724   0.6820321
   0.5216802   0.2233403  -0.5836616   0.0244882  -0.1364530   0.1021162
   0.3623460   0.0500477  -0.1854325  -0.1275319   0.2865434   0.2261858
   0.0767639  -0.2059665   0.2721775  -0.1026880   0.5404608  -0.1066377
  -0.0765583   0.2682065   0.0050072  -0.3225952   0.3969541  -0.1934499
  -0.4779841   0.0936325  -0.0120400   0.0470316   0.3520101  -0.1265457
  -0.2147449  -0.1622773   0.1328815  -0.3999566  -0.1521717  -0.3254721
   0.7898480   1.0131071   1.0020730  -0.0813336   0.0409093  -0.0197989
   0.3580149   1.0907824   0.0185966   0.5556901  -0.5079580  -0.7788818
   0.1136048   0.2188494  -0.0028092  -0.2527443   0.2036344  -0.1575345
   0.1465239   0.0145706   0.1844115   0.2309108  -0.1459976  -0.0739584
  -1.0002110   0.2131993   1.3238109   0.8597176   0.1108060  -0.0461696
  -0.0860656  -0.0409033  -0.0360763   0.0761439  -0.9184392  -0.2172400
   0.5540450   0.6868173   0.4487079   0.0827792   0.2813251  -0.0526670
  -0.1287887  -0.4174163   0.6891244  -0.5752680   0.6447468  -0.1854501
  -0.0821976  -0.0623852   0.1609986  -0.2791901   0.7345211  -0.1709531
  -0.8758726   1.0189938  -0.1089383  -0.0046176  -0.1256929   0.1408835
   0.6389376   0.6660083  -0.5407143   0.1645651   0.1945970  -0.1230981
  -0.2447443  -0.0937432  -0.0095747  -0.3913658  -0.2628259  -0.0030469
  -0.0551205  -0.2371703   0.0094415   0.2437434   0.0731191   0.0749600
   0.1125930   0.0225909   0.1213349  -0.1306538   0.0099394  -0.0862599
  -0.2355409   0.2699830  -0.0803636   0.2619914   0.5939828  -0.8995443
  -0.0752221   0.0483656  -0.2164196  -0.0285847  -0.0785789   0.2316965
  -0.4369470  -0.4242358  -0.9095204  -1.2520329   0.3096723  -0.3433532
   0.1635800  -0.3759470   0.0222963  -0.1593527  -0.0509702  -0.2647250
  -0.2012018  -0.1443599  -0.0268878  -0.1741763  -0.4203526  -0.1801339
  -0.4392374  -0.0760953   1.0762617  -0.6885098  -0.4109441  -1.0986007
   0.0066249  -0.1559225   0.0371018  -0.2562785  -0.4066962  -0.4412595
   0.5265780  -0.5926282   0.3641454   0.0194608   0.1742684   0.0892762
  -0.4184489   0.6905781  -0.1118326  -0.8707236   1.2313729   0.1956302
  -0.0969028   0.0569784   0.3725670  -0.8053160   1.3271215  -0.2073116
   0.1158201  -0.4571831   1.6014973  -0.1642163   0.1324708  -0.1213119
  -1.0871735  -0.3023696  -0.2623789  -0.5301863   1.3511182  -0.1742823
  -0.1048607   0.2672283   0.0727117  -0.1942548   0.3302399   0.1085968
  -0.2173000   0.2886142  -0.0932917   0.3855803  -0.1831306  -0.0543921
   0.8740348  -1.2791683  -0.0607359   0.5571836   0.5917358  -0.3748282
  -0.1382672   0.1184199  -0.0648158   0.2496769  -0.1367514  -0.2936628
   0.6047579  -2.3805425   0.0876841   0.0829396   0.0380528   0.2193547
   0.3565134   0.6472087   0.8823117   0.0236784  -0.0233229  -0.0586807
  -0.1763818   0.1990790   0.0179191  -1.7292081   0.4515767  -1.5530296
  -0.6057090   0.1054855   0.5809212  -0.0612847   0.0576813   0.3997449
  -0.2231851  -0.1606745   0.5625316   0.1327296   0.1883969   0.6135786
   0.0181503   0.4506420  -0.0384480  -0.5365866   0.4861404  -0.8676260
   0.1102088   1.3884680   0.1427161   0.1502101   0.1037059   0.1047541
  -1.3043688  -0.7010193  -0.6246240   0.3670173   0.2081166   0.2194423
  -0.0390319  -0.0916113   0.1420533  -0.1661168   1.7305269   0.4030098
   0.1961049   0.2182351   0.2436741   0.1168092   0.1049329  -0.0498356
   0.2096634  -0.3214513   0.5784880   0.1441376   0.4060478  -0.6828675
  -0.1814690  -0.0286700  -0.1395265  -0.2790133   0.8327641  -0.7684286
   0.5724285  -0.1715444   0.7717842  -0.0632513  -0.1543362  -0.0567235
  -0.6858768  -0.7914115   0.7924888   0.5649034  -0.0595488   0.4623309
   0.0198177  -0.0190134   0.0292410  -0.9934103   0.7240154   0.1876033
   1.0011387  -0.4311082  -0.2015871   0.1189667   0.0215443  -0.0787727
  -0.8240164  -0.8366758  -0.6703349   0.6525880   0.3766015  -0.1554031
  -0.2743797  -0.0129724  -0.0225817   0.4074732   0.1367969   1.3252451
   0.5560707   0.1436752   1.0441797  -0.0316791  -0.1232832   0.0001897
  -1.1199768  -0.0252121   0.6538033   0.9739367   0.0016710   0.8104809
   0.2526085  -0.2343975   0.2620150   0.2243609  -0.2551162   0.4076655
   0.1233481  -0.3020045   0.3057303  -0.2288132   0.0683650   0.0229556
  -0.0594920  -0.0366261   0.1614741  -0.8164562  -0.2430494  -0.1283486
  -0.1454885  -0.1567029  -0.1038118  -0.0053900   0.8148683  -0.1252690
  -0.5812075  -0.5708254  -0.8802407  -0.1672112  -0.1419173  -0.0400326
  -0.4962680   0.1044280  -0.0813794  -0.0658343  -0.6243743   0.2333830
   0.1034079   0.0058228   0.2872289  -0.4874607   0.2795907   0.7372450
  -0.0659167   0.2375447  -0.4114084  -0.0547639   0.0394761   0.0232988
   0.4357785  -0.3584555  -0.1036292  -0.0421806   0.6368051  -0.1517756
   0.2755338  -0.2365788  -0.1714551   0.3789216   0.3247403   0.3210428
   0.3745933   0.6442156   1.0068828   0.0188817   0.2114970  -0.0687932
  -0.2395704  -0.0667983   0.0964369   0.1182294   0.2134874   0.0831131
   0.1306998  -0.3531895  -0.1747201  -0.2153751  -0.0840133  -0.1734203
   0.0846589  -0.2531282   0.0731471  -0.5187905   0.1844255   0.5333205
  -0.6841226   0.0956179   0.7558437  -0.3929294  -0.0583566   0.4544455
   0.0131261  -0.1401507   0.3159649   0.3927062   0.0844002   0.1336635
  -0.8420953   0.4243163  -0.6499303   0.0167632  -0.0331203   0.0153304
   0.2261551   0.3106479   0.1130855   0.1345866   0.0929486   0.1324893
  -0.0472195   0.0107818   0.0732784  -0.6469897   0.9937822   0.4535670
  -0.4136496  -0.5663106   0.8947109  -0.0750334   0.1129165   0.1752772
   0.1297335   0.6483868   1.1621723  -0.9104006   0.4880819   0.3995757
   0.2650035  -0.0732733  -0.0222694  -0.8412392  -0.1423735  -0.7627986
   0.0922280  -0.5985804   0.6173788   0.2087844   0.2016498   0.0532038
  -0.6846451   0.3369998  -0.1636859  -0.0971610   0.8210579  -0.3500917
  -0.0578253  -0.2191171  -0.3056279  -0.4340938   0.1159277  -0.3342453
   0.4471226   0.5954929   0.0303519   0.2407781  -0.0089230  -0.3346755
   0.4336796   1.1022710  -0.5863950  -0.8676747  -0.1602309  -0.5988254
   0.0381187  -0.0534623   0.0914849  -0.6309179  -1.1336343  -0.4352814
   0.4405752   0.4424469  -0.5010640  -0.0166147  -0.0576158   0.0030189
  -0.5772702   0.7916327  -0.6977834   0.5858852  -0.6939995   0.4029661
  -0.2142815  -0.3728805  -0.1917926  -0.7890813  -1.5505487   0.4675235
  -0.3256543   0.1115217   0.6637890   0.2015259  -0.2126399  -0.0883869
   0.4637791   0.4131644  -0.7487498  -0.0854456  -0.9222599   0.7774677
   0.0084155  -0.2686305  -0.0078134  -1.0697288   0.3805301   0.1192579
  -1.2381986   0.1014172  -0.3521231   0.0125016  -0.1895892   0.0889280
   0.5566510   0.0339901  -0.3356150  -0.8957103   1.2577958   0.3056254
  -0.2370541   0.3670974  -0.0028706  -1.3656598   0.8108556   0.0733573
   0.4642306   1.0526955   1.3073814  -0.4322689   0.1429838  -0.2177972
  -0.8677263   0.3040612  -0.0220349   0.3485423   0.6929783   0.0749698
  -0.2004776   0.0077584  -0.0921749   0.2074380   0.9881525   0.4516957
   0.4951306  -0.2614824  -0.2522449  -0.1528620   0.1018689  -0.4331047
   0.7075621   0.6199724   0.5040790   0.3568033  -0.3401569   0.3473537
   0.2846433   0.1196524  -0.0969139   0.2344749  -0.9160067  -0.5340179
  -0.4359140   0.8833397  -0.9502110   0.1626985  -0.3434197   0.3189185
   0.5355917  -0.0425875  -1.2360063  -0.0922479  -0.2177318  -0.2244151
  -0.0263291   0.3637365   0.0039043  -0.6288556   1.1724746  -0.1561546
   0.4898147   0.5023849  -0.5031224  -0.3201937   0.0769016   0.1956362
   0.1302209   0.1866925   0.1199928  -0.3522629  -0.1100439   0.4458916
   0.1060316   0.1923123   0.1742513   0.1287076   0.7864800  -0.2266690
   0.0440918  -0.2469151   0.5015456  -0.1286731  -0.2755335  -0.2681738
   0.5025875   0.2634272  -0.1906000  -0.1221327  -0.5914982   0.6749013
   0.0030119   0.2249714   0.3870602   0.1043941   1.0787142   0.1120605
   0.3190261  -0.5960985   0.4914165   0.1641262  -0.2234952  -0.1398600
   0.2553135  -0.0928752  -0.0600155  -0.0306359  -0.4635290  -0.3500370
   0.2091353   0.2379982   0.0604895   0.1368617   0.3763471   0.1621173
   0.2907207   0.0760706  -0.0529720   0.1604857  -0.0468093  -0.1964870
   0.0351123   0.0935635   0.2886577   0.0646622   0.0671438   0.3991020
   0.1305874   0.1450472  -0.1580660  -0.9715586   0.0625797  -0.0821293
   0.1564600   0.0981989  -0.4610025  -0.0404888  -0.2301559  -0.2816555
   0.0658027   0.1378743  -0.2076334  -1.2447518  -0.0147677  -0.1352801
   0.4350905  -0.1263549  -0.0021403   0.5928490  -0.0898027   0.3342975
  -0.2402385  -0.0537767  -0.0017064   0.0496056   0.0472230   0.1330887
  -0.2057471   0.1006633   0.2094718  -0.0766043   0.6112288  -0.2547401
  -0.4602402   0.1166354  -0.1489327   0.1152086  -0.1268830   0.0044912
   0.0734359   0.1064575  -0.4516879  -0.0680103   0.1995066  -0.1403501
  -0.0349466   0.1720138  -0.1800481   0.0643575  -0.9844889  -0.3195195
   0.0432469  -0.2100268   0.2134259   0.1156767  -0.0416227   0.3371480
   0.7655200  -1.0202270  -0.3789318   0.0053136   0.0964450  -0.0593764
  -1.1135187   1.1724829  -0.6858704   1.3605228   0.7329964   0.1786990
   0.0820292   0.0250369  -0.0930622  -0.5386994   0.4759955  -0.3428987
  -0.2928249   0.2102812   0.4263387  -0.0514219  -0.0439795   0.1014343
  -1.0856457  -0.5513213   0.0216792  -0.2999096  -0.1262600   0.0192794
   0.0483909  -0.3553228  -0.2001517  -0.1801345   0.0809996  -0.2059703
   0.0907054   0.0146527   0.4689372  -0.3177064  -0.3691592   0.0948239
  -0.7055585  -0.3194458   0.7452504   0.1466866  -0.7817395   0.2395662
   0.1702898  -0.1643149   0.0561037  -0.1885993   1.6477738  -1.0726668
   0.0007767  -0.7842841   0.3000948   0.2189122  -0.0272130   0.1864716
   0.4253406   0.2262989   0.0965211   0.3510541  -0.2491035   0.1383088
   0.3395700   0.1590193   0.1801116  -1.3924299  -0.0902539   0.3817276
  -1.0926952   0.7330871   0.2542867   0.0231949  -0.1787901   0.2023426
   0.6624012  -0.1855293   0.2434409  -0.2474718  -0.7205532   0.8827580
  -0.0402941  -0.3434739   0.2373789  -0.2105303  -0.4596467   0.5979606
  -0.2656151   0.1675667  -0.3709683   0.0063997   0.0395050  -0.0213355
  -0.1600408  -0.2954711  -0.7037952   0.8147044  -0.4463664  -0.0868881
   0.2740160  -0.5046771   0.1352714   0.3532824  -0.5134293   0.0279914
  -0.3978637  -0.3777710   1.0188913  -0.2353187  -0.2169134  -0.2548091
  -0.2824903  -0.5035022  -0.1086060  -0.2883059   0.0962260  -0.2933879
   0.5711567   0.0157779   0.1582078   0.2237647  -0.4481067  -0.2984737
   0.3692860   0.0047198   0.3403082  -0.1942828   0.2537817  -0.0908142
   0.5088164  -0.7025630  -0.6806056  -1.2632848  -0.1898028   0.2551477
   0.3073261  -0.0871356   0.1554196   1.4988401   0.3035072  -1.7673772
  -0.3758220  -0.2296074   0.9043546  -0.2793660   0.0407704  -0.3544704
  -0.7664060  -0.0148635  -0.3074538   0.2205858  -0.0090454  -0.3002287
   0.1502616   0.0579473   0.1338267  -0.5934756  -0.3506545   0.1647169
  -0.0871300   0.0986664   0.0312720   0.0627835   0.0531358  -0.0756269
  -0.8514661  -0.2365992  -0.2245890  -0.0474373   0.2263079  -0.1560357
  -0.1966979   0.0625363   0.0984178   0.1197398  -0.4458407   0.0306212
  -0.3009883   0.1882324  -0.5445266   0.2048920   0.2321903   0.1520722
  -0.3250798   0.4975814  -0.5546211   0.9882017  -0.7311755  -0.3539630
  -0.1789730  -0.0402958   0.2746864  -0.4036776  -0.1657982   0.4751612
  -0.3546844   0.0243586   0.0042260   0.1595374   0.0032603  -0.1382517
   0.4007552   0.0191954   0.1060059   0.8396391   0.7629293  -0.2588418
  -0.0598631   0.1566923  -0.0907773  -0.2373162  -0.5934432  -0.4975339
  -0.7591621  -0.4116854   0.8556371  -0.0933559  -0.0067089   0.1486297
  -1.0665786  -0.3380533  -0.4157442  -0.0985510  -0.3178726  -0.1622795
   0.0686430  -0.0569384   0.1228189   1.0827368   0.3458750  -0.7257853
  -1.4399204  -1.1071368   0.8367928  -0.0738440  -0.0051348  -0.2162425
   1.0623934   0.8963052   0.2783755  -0.8022994   0.7883258   0.2514353
   0.0415054   0.0127369  -0.1023399   0.6355589   0.6337132  -0.4948569
  -0.6119351  -0.4307358   0.3479983   0.0554260  -0.0709430  -0.1049609
  -1.0810526  -0.5676264  -0.5305454   0.6513365   0.0207364  -1.1095196
   0.2946827   0.2288589   0.3429634   0.0325082   1.4014314  -0.2058104
  -0.3280856  -0.7575185  -0.4693364  -0.0098660   0.0078872   0.0361222
  -0.5579261  -1.2619720   0.0681784   0.2779057   0.6356014   0.0450086
   0.2295301   0.1221179   0.1463172   0.5151918   0.2385995   1.0718492
   0.5257191   0.4513735  -0.3918845  -0.1728223  -0.1301373  -0.2872451
   0.3281558   0.1346412   0.0074432   0.4606750   0.0706846   0.1834606
  -0.0603016   0.2677777   0.1259663   0.1660900  -0.0258034  -0.2678766
  -0.4245253   0.0293185   0.4200285  -0.1772156   0.0027325  -0.0695675
  -0.1860395  -0.1048167   0.2703422  -1.2378237  -0.2791231  -0.3127540
  -0.2010326   0.0557114   0.0898315  -0.3460367  -0.5812677   0.0024458
   1.0883337   0.1394140   0.2162918  -0.1518671  -0.3067302  -0.0239025
  -0.5362431   0.0753270   0.0234262  -0.2528439  -0.2277592   0.0331163
  -0.2358845   0.0627188   0.1042938   0.5626551   0.2296579  -0.2605169
  -0.2198790   0.0794284   0.4365203   0.4043785   0.4152054  -0.0148145
   0.4102088   0.6949089  -0.0320790   0.0491834  -0.9730671   0.6637611
   0.2564965   0.2284530  -0.3220366  -0.0987095  -0.0302755   0.4507280
  -0.2166264   1.5068664  -0.0916518  -0.0599757   0.0191404  -0.3428808
  -0.1270729   0.0241056  -0.3526476  -0.6527064  -0.6428754  -0.1599221
  -0.0341178   0.1846635   0.1370104   0.0888117   0.6768347   0.0883974
   0.2621821   0.0620514  -0.2220819   0.0089638   0.0625378   0.1241680
  -0.0770849   0.2788075   0.2578601  -0.0718711   0.2703952   0.4217884
  -0.2038441   0.2097091  -0.0671550  -0.1556649   0.0877955   0.0259335
   0.0847107   0.4867739  -0.2888807   0.2129540   0.0386855  -0.1082439
  -0.4676516   0.6349484   0.4278098  -0.2776415  -0.1843034  -0.3115164
  -0.0955610  -0.1261203  -0.0823034  -0.2825227   0.2442874   0.0155485
   0.0728787  -0.5670877  -0.4147828   0.0759426  -0.0791716   0.2018789
   0.1900425  -1.3520896   1.0617969   0.2652695  -0.0355903  -0.1381300
  -0.1450772  -0.0750366  -0.4403285  -0.4699763  -0.0995086   0.0882342
  -0.1372358   0.0091055  -0.4774143  -0.0844608  -0.0730070   0.1340421
   0.6619220   0.2304558  -0.7600854  -0.5758787   0.6844132  -0.3911029
  -0.0150057  -0.0599605  -0.1285149  -0.8140205   0.3576456   0.2540062
  -1.3449695   0.2480967   0.8084414   0.2841090  -0.0004678  -0.2428411
   0.2347509  -0.1458356  -0.0905866   0.3745590  -0.2106026  -0.3440505
  -0.1372359  -0.1250529  -0.0123314  -0.4428485  -0.8813723   0.6632333
   0.0392968   0.6298080   0.2017471   0.2238634   0.1033307  -0.0194503
  -0.6797116  -0.2299982  -0.0331944   0.1877904   1.4135321   0.5983506
   0.0140367  -0.2304651  -0.0355720   0.8310978  -0.2080370   0.6780217
   0.1953141  -0.0899035  -0.4467842  -0.0806016   0.2775173  -0.0053097
   0.2840649  -0.1803093   0.8894131   0.1290739  -1.2897357  -0.9991381
  -0.1896646   0.2202113   0.0042873   0.1959351   0.4775092  -1.4036971
   0.4702739  -0.7352217   0.9085870  -0.0161082   0.3519099  -0.0317727
  -0.6673771   0.1837401  -0.1467273   0.0945351   0.6492431  -0.8222956
   0.1234844  -0.0167450  -0.2838916   0.6602099   0.3925844  -0.2939380
   0.5588113   0.3164429   0.0685114   0.0104561   0.2189476   0.2921386
   0.3893707   0.4026239   0.1973395   0.2298885   0.2875464   0.0518440
  -0.1274829  -0.0310083   0.1282471  -0.1778142  -0.1713695   0.1327590
  -0.7474270  -0.2229333   0.0968210   0.0648646  -0.0059313   0.3415459
   0.4626737  -0.7224882   1.4436683  -0.4793376  -1.1879384  -0.2891894
  -0.2036895   0.0171323   0.2082980   0.6192889  -0.9331400  -0.4926257
  -0.5254699   0.0415082  -0.2508499  -0.0206511   0.3305843   0.1463610
   0.5922578   0.9131125   0.7165836  -0.0636972   0.7909526   0.7493080
  -0.0352912  -0.2201990   0.1590104  -1.2431411   0.2456491   0.1283329
   0.3774903  -0.3646321   0.1433769   0.0428797   0.1279627   0.1197564
   0.2454482   0.2617265  -0.0607388  -0.6181465  -0.0947080   0.8555520
  -0.0536192  -0.2952351   0.2743920  -0.0445256  -0.8453993   0.1054317
  -0.0712626  -0.5054155  -0.1909916  -0.3036018   0.2666665  -0.0872861
  -0.9405292  -0.4280332  -0.2554362   0.2894470   0.1687901  -0.3451743
   0.0288078  -0.2036294   0.0907136  -0.0197200  -0.1643678   0.3558877
   0.1031186  -0.2344232  -0.2951542   0.2304174   0.2372307   0.2447453
  -0.4145084  -0.8841133   1.1436497   0.7182375  -0.4487708  -0.6884093
  -0.1576765   0.2213810   0.0959678  -0.7801726   0.9263106   0.5234023
  -0.0087522   0.2108639  -0.0520874  -0.2710699  -0.0606268   0.0020487
  -0.4141114  -0.4926274   0.1098049   0.4649658  -0.2400536  -0.1107951
   0.0050081  -0.4425368  -0.0120936  -0.0445659  -0.4961423   0.1088184
   0.6082586   0.1594801   0.4385113  -0.1511443   0.1342213   0.1145846
   0.2163745  -0.3715196   0.6080200  -0.1206947   0.2134751  -0.2396989
  -0.0877995  -0.2016730   0.2299583  -0.2775681  -1.1220419   0.3835723
   0.0744824  -0.0876606  -0.1428814   0.4068639   0.0321792   0.2233780
  -0.1662115  -0.3723616  -0.4477218  -0.8653917  -0.5111586  -1.1124859
   0.3807607   0.0904536   0.2544892   0.1970746   0.2292598   0.2173641
  -0.3184638   0.5952366   0.9999401  -0.3627760  -0.1159482  -0.3245768
   0.2986029  -0.3606824   0.2115847  -0.2340807  -0.1647167  -0.2001576
  -0.1737202   0.3114347  -0.0714515   0.6252253  -0.0649472  -0.1470549
   0.0808542  -0.3036447  -0.2730419  -0.2982036   0.0208468  -0.1586990
  -0.8727703   0.9510738   1.0572375  -0.5603659  -0.0137899   0.2164582
   0.1423608  -0.0110089   0.1255213   0.1918945  -0.0729300   0.2989512
   0.3122991  -0.0462746   0.2474578  -0.0026267  -0.0703004   0.0153554
   0.2652427   1.1914390  -1.7799021  -1.0402652  -0.2463907  -1.7225181
  -0.3221793   0.1872917   0.3318964  -0.4160050  -0.6901655  -0.1990865
  -0.5770217   0.8812234   0.6380116  -0.0345438  -0.3674151  -0.0010842
  -0.0825289  -1.0251164  -0.3488629  -0.0926190   0.2860573  -0.2027995
   0.0093553  -0.0383036   0.2888133   0.7951925   0.4510092  -0.2494034
  -0.2820979  -0.1847508   0.4281801  -0.1443404  -0.1017239   0.2704651
  -0.5408540   0.6942967  -1.4414320   0.3549176   0.0684293   1.5544599
   0.1091716  -0.0455168  -0.0538298  -0.1299834  -0.2972661  -0.2278291
   0.3247205   0.0608109   0.1005259   0.0900672  -0.4798484  -0.1597835
   1.2752189   0.0830138   0.5818813   0.7409854  -0.3301026   0.1167939
   0.2697020   0.5665865  -0.2773524   0.5517458  -0.3216520  -0.3683037
  -0.5739778   0.5880442  -0.6758948   0.0433709  -0.1413890  -0.1968383
   0.1663652   0.3094119  -0.5744107   0.3449058  -0.2092712  -0.1471825
  -0.0089530   0.1017115  -0.1117401  -0.4647782   0.6855387   0.8240134
   0.2327925  -0.2747284  -0.1803986   0.0314171   0.0269599  -0.1409686
   0.2660918  -0.1833221  -0.1298151   0.6274509  -0.2975493   0.3163417
  -0.0885826  -0.1048905   0.1153831  -0.2179468  -0.1953747   0.6169676
  -0.1927348  -0.2445203   0.1439842   0.0117996  -0.1973896  -0.3674152
   0.0019836  -0.5739183   0.4098538  -0.0429090  -0.6115917   0.4029525
  -0.0462264  -0.1880753  -0.0243153   0.1251529   0.0784334  -0.9999486
  -0.6836757   0.6288368  -0.0350408  -0.1684136   0.1719955  -0.0921494
  -0.7421743  -0.1416729  -0.7725869  -0.0998042  -0.2159618   0.1914321
   0.1494145  -0.3591368   0.1585427   0.0335241  -0.3368886   0.0176701
  -0.1163253   0.0675858  -0.2285189   0.5257142   0.0081904   0.1103824
   0.8123860  -0.8676970   1.7275370  -0.8585264   0.6860464   0.3556336
   0.5688498   0.1329557   0.2128995  -0.3957435   0.4184746  -0.6341336
   0.6484487  -0.3000021  -0.5256478  -0.2633824  -0.2195786   0.1715267
  -0.5531464   0.4433019   0.3108508  -0.4500068   0.4733012   0.2368541
  -0.1672275   0.3099991   0.0447718  -0.1222831   0.1497107   0.0146164
  -0.1073102   0.3169459  -0.0661174  -0.2196799   0.0749626  -0.0969637
   0.1345857   0.1353950  -1.4616272   1.0622784   0.7453503   0.1374068
   0.1531395   0.1260130  -0.0780880   0.0297264   0.0575126  -0.4347308
   0.5305916   0.3411045   1.0025684   0.0817091  -0.0977538   0.1789330
   0.5559848  -0.5280579   0.3717048   0.7212210   0.2689204  -0.2362018
   0.0071231   0.3863931  -0.0874763  -0.2335744   0.3043211   0.4407558
  -0.7175882  -0.1021837  -0.6960772   0.2220244  -0.4128347  -0.2509221
   0.7051339   0.0544536   0.3640881   0.7876504   0.5478663  -0.1897231
   0.0626638   0.1127059  -0.0775619   0.3980446   0.0440235   0.1409004
   0.1859541  -0.0885642   0.0699245  -0.0859203   0.4032538   0.0969952
   0.5981609   0.5321876  -0.7195646  -0.0111647  -0.3105627  -0.7813760
   0.0340996   0.1352594   0.2542143   0.0490113   0.3527906   0.7099920
  -0.9955281  -0.5357379   0.3317096  -0.0350975  -0.0105952  -0.3259784
   0.5740270  -0.2241830  -0.3283770  -1.2625335  -0.3674454  -1.0897420
  -0.1757294  -0.0887807  -0.2462936  -0.5765328   0.2702107   0.5972261
   0.1448254  -0.4532858  -0.9709247  -0.1529086  -0.2070656  -0.0604518
  -0.0460636  -0.6288973   0.7662462   0.1032652  -0.9094351   0.5500305
  -0.2295849   0.0833458  -0.4093989   0.4039258  -0.5046968  -0.3915748
  -0.9162140   0.9895165  -0.4654225   0.0023834   0.0457839   0.1670470
  -0.1366402  -1.6676697   0.3880333   0.0764231   0.0436794  -0.6971327
  -0.1048270   0.0139846  -0.1329402  -0.5701653   0.0427241   0.2466866
  -0.3894721  -0.8543917  -0.6937705   0.1420498   0.1772075   0.1179969
  -0.6542293   0.1517509   0.7419608  -0.1998871  -0.3806422  -0.2357307
  -0.0262481  -0.1799058   0.1191962  -0.0757247  -0.5112363   0.1564491
  -0.0669918  -0.3357078   0.5492082  -0.0013543   0.1060223   0.1346038
  -0.2767888   0.3086448  -0.3990166   0.1624505  -0.3672188   0.0821751
  -0.0238275  -0.1842144  -0.1892107   0.3602934  -0.7160900  -0.0611207
   0.0709233  -0.6070623   0.1310284   0.0135701   0.3421349   0.0019050
   0.5548657   0.5110095  -0.2473492  -0.3408224   0.7157578   0.3607060
   0.1526913   0.1244574   0.0451953   0.3384889   1.0029727   0.3036719
   0.1796046   0.3187395   0.0970917   0.1823641  -0.0829912   0.1262670
  -0.2583835   0.1405638   0.3462451   0.8922671   0.2714065   0.1475001
   0.0432292   0.0161361   0.1486439   0.1106897   0.6097290  -0.0256736
   0.1285648   0.7772174   1.3447357   0.2485725  -0.0940237  -0.0063160
   0.4240597  -1.0725664   1.0075378   1.5285670  -0.2459168   0.5188213
   0.1628212  -0.0778642   0.1149516   1.0370773  -0.8187408   0.1990898
  -0.0231539  -0.0543294  -0.4956598  -0.0505751  -0.0940136   0.0658748
   0.1098514  -0.3950989   0.0152897  -0.2624274  -0.2423783  -0.1026805
   0.0823717  -0.0253015  -0.0345879   0.8033148   0.3383400   0.2112707
   0.2726489  -1.3219012   1.1155878   0.2113768  -0.3073952  -0.2057378
   0.4162442  -0.2185573  -0.2270357   0.1290406  -0.2730221  -0.4406568
  -0.0329140   0.0020800  -0.3712262   0.8752390   0.5891460  -0.0489174
   0.2686738   0.2823057  -0.2749212   0.1410611  -0.2926226   0.0359949
   0.2012444   0.6080974   0.4830475   0.1655306   0.7637886  -0.8767743
  -0.1051484   0.1060002   0.3431365  -0.6405447   0.6949409   0.5007697
  -0.1046054  -0.0170542   0.2827563   0.0958145   0.3506433   0.0516045
  -0.0243702   0.3709946   0.7709965  -0.1880040   1.0839447   0.6238426
  -0.0146121   0.1337764   0.0416675  -0.1201994   0.3625332   0.9582854
  -0.3273622   1.0176639  -0.2088694  -0.0553902  -0.0038077   0.0300461
  -0.5826581   0.4478818  -0.8315684  -1.1120393  -0.5135632   0.3559420
   0.0037953   0.0191178  -0.0233746  -0.5089899  -1.5853815  -0.7651428
  -0.2129109   0.8476901   1.2378953  -0.0250037  -0.1655175  -0.2844145
  -0.8353786  -0.0425308   0.2685055   0.3846529  -0.3107528   0.3149338
   0.1800316  -0.0226936   0.0724074   0.0446648   0.1486084  -0.0441934
  -0.0680309   0.2651515  -0.1497850   0.1007907  -0.1456406   0.0868818
  -0.1125136   0.1286187   0.1208125  -0.0473181  -0.9571863  -0.0956794
  -0.1273770   0.2166160  -0.0164392  -0.5247990  -0.4268223  -0.1336580
  -0.5946389   0.8936661  -0.6206255   0.2304929  -0.1764793   0.1142243
   0.2269038  -0.1637438  -0.0268319   0.3463152  -0.0988386  -0.2553295
  -0.0194360  -0.4513736  -0.1137669   0.2806461  -0.3451312  -0.1171782
  -0.5715844  -0.6588452  -0.0783975  -0.3873486  -0.0257766   0.1212841
  -0.0074483  -0.0445752   0.9232636   0.6069015  -0.9233976  -0.4856589
  -0.1815156   0.0333507  -0.0702559  -0.6505188   0.2966249  -0.6072493
   0.0301273   0.2119749  -0.0017195  -0.3127322  -0.0114023   0.1437887
   0.0240065   1.0062774   0.5057245  -0.6156092  -1.2091506  -0.3585081
   0.1334143   0.3725951   0.4769507  -1.0327148   1.1597050  -0.2646050
   0.4165476  -0.7774029  -0.2794300  -0.2027194   0.0440883   0.1577305
  -0.0580333  -0.1362852   0.1720393   0.3454900  -0.5956836  -0.2671077
   0.2987986  -0.0880505  -0.1448577   0.2022802  -0.5033995  -0.5572243
  -0.1783384   0.2856470  -0.5479628  -0.1718394   0.3522708  -0.0257217
  -0.1667539   0.6531750  -0.2878984   0.1608131  -0.6508526   0.4552797
   0.0736984  -0.0487428   0.1683435   0.3331371  -0.0703509  -0.6753265
   0.0812314  -0.1338406  -0.2019848   0.1247679  -0.1710177  -0.2774832
  -0.2009457  -1.1137434  -0.7691553   0.1996547   0.2662519  -0.2620099
   0.2717734  -0.7290300   0.0616388   0.6736413  -0.5538891  -0.2142338
   0.1103274   0.1227850   0.6324452  -0.0340817  -0.1846781   0.3792129
  -0.2899945   0.4763576  -0.1182585   0.2360038   0.0156545   1.4368168
  -0.0097641  -0.2084510  -0.1601165   0.0191700  -0.2822708  -0.2753389
  -0.1236018  -0.0186061   0.1922294   0.4340134   0.0657646   0.1060968
   0.9640647  -1.0363330  -1.4792552   0.4675328  -0.0292742  -0.0481379
  -0.0548799  -0.1564326  -0.0731347  -0.2888040  -0.5002307  -0.5312941
   0.1779522   0.4583732   0.1264710  -0.0363827  -0.1020342  -0.1759429
  -0.5001349  -0.2280559  -0.5769741   0.2089890   0.3660624   0.1208254
  -0.1130974   0.0749960   0.2393944  -0.1094190   0.2647131   0.8428415
   0.5765062   0.1306749   0.2367461  -0.0388861  -0.2336746   0.0827117
  -0.3163440  -0.1998876  -0.0470065   0.4384502   0.0798136  -0.0052028
   0.3193194   0.0309382  -0.0306488  -2.0963218   0.2973424  -0.3346045
  -0.7736403   0.1891072  -0.0101266  -0.0910737   0.0502899   0.0079897
   0.2132420   0.6283527  -0.0531950   0.1257556   0.2374161   0.2639733
  -0.1055152   0.1134721  -0.1813700   0.0404177   0.4289395  -0.3706668
  -0.2659562  -0.0572976  -0.4029744   0.1172256  -0.1806190  -0.1821571
  -0.4419123   0.4533756   0.1502341   0.8568211  -0.0287275   0.1751310
   0.2959608   0.0960405   0.1732273  -0.2207845   0.8709162  -0.1312218
   0.1432584   0.8027165   0.5069194   0.0972710   0.1417084   0.0632653
   0.1378331   0.1797148  -0.2987118   0.1987783   0.4595345  -0.7885020
  -0.2690811  -0.2391992  -0.0528918   0.1689552   0.4864937   0.5671027
  -0.1999965  -0.3764390  -0.0476762  -0.1065260  -0.1370702   0.0038505
   0.7160575   0.5382165   0.2882170  -0.2824075  -0.1296845   0.2304823
  -0.2774169   0.2100067   0.0624859   0.2333548  -0.2038158   0.0624912
   0.3043322   0.8702859   0.4489161  -0.0309412   0.1059343  -0.2603784
  -1.0165515  -0.2507406  -0.4805258   0.9592587  -0.2515500   0.0164038
  -0.0099487  -0.0052980   0.1706075  -1.0424038   0.1105397  -0.3874482
   0.0293826   1.1979472  -0.0447535   0.0174952   0.0260440  -0.2253736
  -0.0211257  -0.2459077   0.2449728   0.0880057   0.6334541  -0.7152297
  -0.1505233   0.0647819   0.0618560  -0.1764153   0.3885080   0.2084786
   0.0144615  -0.1427057  -0.0340776   0.4220788  -0.0886923   0.2529186
   0.3138845  -0.0731758   0.1814254  -0.2698237  -0.2294505  -0.2307398
   0.0866538  -0.3711210  -0.1507183   0.1769592  -0.7024176   1.1944903
   0.2435755  -0.2281688  -0.1146666  -0.2525506  -0.0480735  -0.2268053
   0.2562166  -0.8116688  -0.9513953  -0.3895671   0.2525761   1.3093491
   0.0124299  -0.2258121  -0.2049190  -0.3777515  -0.2472661  -0.6199466
  -0.5486397  -0.4598530   0.4958753  -0.1246070   0.1072216   0.0462540
   0.5686082  -0.4679097   0.0414089   0.0817255   0.0298563  -0.2808514
  -0.1144756   0.3721304   0.2559757  -1.4974091   0.2579791   0.5656012
   0.6230767  -1.0713182  -0.1847071   0.1402152  -0.1298964   0.3014287
  -0.0294686  -0.3362783   0.3433538   0.0308791  -0.2560524   0.3203247
  -0.0788324  -0.1793805   0.2442112  -0.3810345   0.1763921  -0.3531262
   0.0878292   0.1165650  -0.6479706  -0.1623457  -0.0984950  -0.1654824
  -0.0150104   0.4630606   0.3693524  -0.5054470  -0.4157384   0.0723624
   0.1349410  -0.1934407   0.0430262   0.5426991   0.2170833  -0.6988196
   0.5043412   0.2966257  -0.6708984   0.0751896   0.0065876   0.0455578
   0.0249819  -0.3016821   0.1052247   0.2771452   0.5816666  -0.1035369
  -0.0339497   0.0360556   0.0123375  -0.2898885   0.0182754   0.5310527
  -0.1919325  -0.4586364  -0.2422078  -0.2751635   0.1893827   0.1393001
   0.5257035   0.2861918   0.2686861  -0.3840118  -0.0127821   0.1154594
  -0.0195516   0.0528430  -0.0805122   0.3394950  -0.4938222   0.5907478
  -0.3952897   0.8764306   0.2718884  -0.2015463   0.0046844  -0.1765401
   0.2249920   0.1239843  -0.3208170  -0.0065382   0.0807762  -0.1990571
   0.0790672   0.0167291  -0.0169281  -1.1990667  -0.4825783  -0.1975318
   1.0228627   0.1393613   0.0831181  -0.0304970  -0.1879202  -0.0251572
   0.0408962  -0.0277728   0.9439879  -0.6266499   0.1339234  -0.5047964
   0.1637358   0.0786939  -0.0781349   0.1433743   0.1586068  -0.2917503
  -0.0542373   0.2026509   0.3702737  -0.1144916  -0.3482509   0.2701311
   1.4295939   1.1789307   0.8367353  -0.9759389   0.2698205  -0.5438823
   0.2622221   0.0674023   0.1394515   0.5349385   0.4508627  -0.6211361
   0.5101136   0.3887638  -0.3456612   0.0123101   0.1095054   0.3120298
   0.2461828  -0.4420439   0.4168516  -0.2374274  -0.7310553   0.1329170
  -0.0923097  -0.0616489   0.3962142   0.3673994  -0.4145016   0.4915624
   0.3292081   0.5018653  -0.2275422   0.2406280  -0.1267140   0.0680423
   0.1745018   0.2501383   1.1608136   0.9603057  -0.2808085  -0.7277356
  -0.0554854   0.0641927   0.1157873  -0.6643931   0.1774661  -0.0127045
  -0.4815182   0.5229864  -0.2874213  -0.0527842  -0.2811682   0.0040850
  -0.9172739   0.0273219   0.6946884   0.7311476  -0.5128216   0.8932051
  -0.1435714  -0.0972783  -0.1054630  -0.3811206  -0.4497914   0.8065674
  -0.3027921  -0.3292489   0.4885337  -0.1966647  -0.2311294  -0.0947636
  -0.3025644  -0.7914887  -0.0479045  -0.1980680  -0.8116914  -0.3795241
  -0.0574736   0.3107009  -0.2306980   0.5667345   0.5843992   0.2867545
  -0.3784391   0.1049002  -0.3160781  -0.0595340  -0.1168902  -0.1069086
   0.2079482   0.3734767   1.0175875   0.6574641  -0.1323113   0.9933578
  -0.1449962  -0.4162081  -0.3138120   0.0845846   0.2215451  -0.0045353
   0.5955962   0.9531914  -0.4758457   0.3924541   0.2189268   0.0946764
   0.3103304  -0.0652673  -0.1140762   0.6329855  -0.3411882   0.4487532
  -0.1002522  -0.1226911  -0.1283192   0.5090253   0.9826193   0.2412835
   0.3576610   0.7403721  -1.1377375  -0.1613937   0.2411085  -0.0080714
  -0.6311861   0.7998396  -2.2437895  -0.1595037   1.7127758  -0.3218622
  -0.1182706   0.0699369   0.2155965  -0.5271271  -0.1040261   0.5356073
  -0.2563392  -0.2040090   0.1103499   0.2278526  -0.2634737  -0.2442654
   0.1843213  -0.5447254   0.1790241   0.0667242  -0.2447194  -0.4509996
   0.0735169  -0.1468242   0.2547907  -0.2196163   0.1681276   0.1437152
   0.0943333  -0.4926176  -0.2712772  -0.4371147  -0.1056083   0.3479184
   0.1353265  -0.2537541   0.3952900  -0.2740267  -0.3418638   0.1860218
   0.1112463  -0.0155065   0.1374720  -0.0471688   0.5124578  -0.8858819
   0.0169445  -0.0652313  -0.2194019   0.3419930  -0.3327764   0.2003411
   0.2799251  -0.2584712  -0.0882816   0.6963318  -0.2061536  -0.2021812
  -0.0883051  -0.0190381   0.1678818   0.0551730   0.8215339   0.4894260
  -0.8556523  -0.3378014   0.4008755  -0.1063092  -0.0724404   0.1288475
   0.9987438  -0.9951604   0.9334670   0.2017218   0.5743272   0.2588346
   0.0294524   0.0376272  -0.2751051   0.1881574   0.5337908  -0.6249874
  -0.1851025   0.0943955  -1.0819062  -0.3669195   0.1856366   0.2493310
  -0.3844691   0.0030833   0.1049483   0.4072209  -0.0006838   0.0408011
  -0.4443814  -0.0241552  -0.2038025   0.9606521   0.3173578  -0.5068703
  -0.0064129  -0.3399499  -0.2519500  -0.1021169  -0.0141772  -0.3384606
  -0.2956686  -0.0386556   0.8812232  -0.0142596  -0.4208659   0.9508830
   0.0778555   0.4076147   0.2583204   0.5615216   0.2369644   0.9192406
  -0.2066448   0.1838258  -0.3609004   0.1829385  -0.1571955   0.2686329
   0.5553845   0.0980991  -0.3918341   0.1713611   0.0135065   1.2875082
   0.2197017   0.1228573   0.1918039   0.3734794   0.3570665   0.1443353
   0.6911545   0.0967497  -0.3008951  -0.1622436   0.2053347  -0.0709566
  -0.4788825   0.2642284   0.2827573   0.0261193   0.6706320  -0.1207322
  -0.1231785   0.1697532   0.3137959  -1.1113183  -0.0392871   0.9781597
   0.3205659  -0.8928334  -0.2868900   0.1643608  -0.1581790  -0.1147495
   0.4532289   0.0636618   0.7342109   0.6535929   0.3491903   1.5638104
   0.1443013   0.2244481  -0.0235166   0.2982912   0.3775455  -0.6243799
  -1.0542147   0.1078931  -0.1432990  -0.0108972   0.0492974   0.0907880
   0.0705004  -0.5080125   0.1651570   0.0495401   0.1179244   0.3317479
   0.0622583   0.2683288  -0.0558857   0.6941436  -0.0489993  -0.2111494
  -0.1138590   0.7824655  -0.5402208   0.1586429  -0.1442078   0.0358803
   0.7465385  -0.7848039  -0.1259557  -0.6052343   0.7499265  -0.2270863
  -0.1831590   0.0145220   0.0541309  -0.9479076   0.0633179   0.5259806
  -0.9056989  -0.2200271   0.2590756   0.3469190   0.1420605  -0.1214102
  -0.9709563   0.2556640  -0.0099128   0.7269969   0.4411300   0.7941457
  -0.4669425   0.2069966  -0.2606729   1.2714677   0.1916532   1.7779269
  -0.0302925   0.2721506  -0.6157059   0.0512459   0.1233742  -0.2433516
  -0.6391143   0.9052226  -0.1271200  -0.5672641  -0.2338882   0.8080021
   0.3650756  -0.0078815  -0.1038215   0.0428284   0.8605552   0.1754848
  -0.1116202   0.1583606   0.1244714  -0.0630451   0.1825874   0.1926570
  -1.2047103  -0.5328391   0.1219436   0.0502296   0.4688169  -0.2758688
  -0.0635728   0.1108930  -0.0242813  -0.7832067   0.7031381  -0.1014064
   0.0815330   0.1883232   0.4727059  -0.0240135  -0.2598270  -0.1557671
  -0.1200262  -0.1122487  -0.2274048   0.0097945   0.2083517  -0.2950929
   0.3116104   0.1605036   0.3643575   1.4109493  -1.4801109   0.6270685
  -0.8005745   0.3293410  -0.7317023  -0.0704622  -0.5180657  -0.2193143
  -0.0572360  -0.5936600  -0.3355879  -0.0649266  -0.3656790  -0.0202571
  -0.0483155   0.1117433   0.1017427   0.1426733   0.8893926  -0.5436705
  -0.6028275   0.1831755   1.3719525  -0.0329603  -0.1128427  -0.1409064
   0.3440693  -0.8854845  -0.5015222  -0.9717578  -0.4366180  -0.3889747
  -0.1264316  -0.0811327   0.2825284   0.1411227  -0.7440464   0.3441984
  -0.9176292   0.7230183  -0.0695759   0.0673214  -0.0215329   0.0874807
   0.5672688  -0.5538630   0.2720075   0.0749517   0.1945363   0.7293320
   0.1809960   0.3854482   0.2133276   0.1114155  -0.4399735  -0.5996216
  -0.6121164  -0.4889929   0.9029921   0.4740864  -0.1487509   0.0991323
  -0.8987486  -0.1071988  -0.3496618   0.0853119   0.8755446  -0.7737137
  -0.1352750  -0.0586022  -0.0794859   0.0198518   0.3917251  -0.3074412
   0.2794809  -0.4977721   0.1849274   0.2744768  -0.0332431   0.1985486
   0.4216313  -0.2636074   0.0339478  -0.4296813   0.0348471   0.3291882
   0.1895348  -0.1458795   0.0069493  -0.1003290  -0.3078268  -0.0791789
   0.0297737   0.1111457   0.1255695   0.1937408  -0.0058358  -0.1450253
  -1.1850208  -0.8792466   0.8709481  -0.4581144   0.3282418  -0.0463996
  -0.0159620  -0.1582617  -0.1457447  -0.5152091  -0.9192565  -0.3252648
   0.4052773   1.4447284  -0.2338311   0.1014226   0.0668217  -0.0227406
  -0.3005809  -0.0858834  -0.1183099   0.1663481   0.9445231   0.2279439
  -0.0034562  -0.1885853  -0.1001893   1.1192655  -0.1429080   0.8589193
  -0.2242434  -0.3375619  -0.9569758  -0.0474124   0.0906794   0.2087782
   0.0387329   0.3149004   0.0576113   0.1742117   0.5257650  -0.8108532
   0.0836911   0.0410709   0.1393101  -0.2113614   0.0569145  -0.2430519
   0.1477977   0.0333661   0.2269356   0.2373091  -0.2362565  -0.0122390
   0.0235063  -0.0025562   0.0534719   0.1700175  -1.2009322  -0.7061209
   0.2802673   0.1141900   0.0357468   0.1563380  -0.0095662  -0.0197574
   0.3823437   0.3598536   0.0111826   0.0909781   0.1376313   0.2170792
  -0.1209829   0.2183589   0.0981618   0.1399948  -1.4524099  -0.4300384
   0.1961715  -0.0847104   0.2204661   0.1833512   0.1307795  -0.2647319
  -0.0019166   0.0509667   0.6058780   0.0300551  -0.2677052  -0.0507452
  -0.5104471   0.5091901  -0.5084962   0.0340995  -0.5305499  -0.4708709
  -0.1066043  -0.0680076  -0.0375472  -0.0956185  -0.1570825  -0.5233915
   0.6964772  -0.1717158  -0.0670855   0.4402978  -0.2465032  -0.0693803
   0.5480791  -0.2357072   0.0105348  -0.7316947   0.7727559  -0.1713953
  -0.1424306  -0.2122125   0.1434594   0.3423545  -0.6775980   1.0620110
   0.0966152  -0.1853118   0.2557536   0.0430293  -0.1794954  -0.2222166
   0.3786677  -0.1583800  -0.5468060   0.3518840   0.3984648  -0.5841501
  -0.2352212  -0.0010445  -0.1711280  -0.7084109   0.4098214  -0.5644679
  -0.4906436  -0.4494627  -0.1378964   0.1798136   0.0170950  -0.1203414
   0.6101171   0.0132717  -0.8426383  -0.2967605  -0.9841097   1.3595724
  -0.1042683  -0.0656351  -0.2364695  -0.0363613  -0.2777814   0.0838990
  -0.3978762   0.1022604  -0.0904686  -0.1450876   0.1910782   0.4796183
  -0.5358749  -0.1980922   0.8358165   0.4286453  -0.0778792   0.4660379
  -0.2492781  -0.2505633   0.4451963  -0.3782240  -1.6160054  -0.1846484
   0.5219785  -0.1515134  -1.0565788   0.1611983  -0.1217036   0.2990472
   0.1066011   0.0240546   0.7501003   1.2615973   0.1902062   0.1509889
   0.2237348   0.2926184  -0.2344476   0.1451331  -0.3987108  -0.2810872
   0.1441535   0.4712140  -0.3733989  -0.3769611   0.0671393  -0.3341724
  -0.0512467  -0.9567347   0.7145065  -2.6742272   0.0221774  -0.3125312
  -0.0712344  -0.1089421   0.2401039  -0.8397639  -0.1581887   0.7700877
   0.6932181  -0.2920931   0.7942164  -0.0237218   0.2819174   0.2762009
   0.6001096   1.2600030   0.2766954   0.9198750  -0.5324477  -0.3816596
   0.1847736   0.1343139  -0.0076718   0.4729764   0.6843395   0.5454463
   0.1559326  -0.4613591  -0.6453941   0.1117860  -0.0513069  -0.1790421
  -0.9514443  -0.8411051  -0.2921339   0.4617787  -0.5441750  -0.3758505
  -0.3057841  -0.0393489  -0.0913641   0.3366042  -0.9246643   0.7028073
   0.2337650   0.0756010  -0.2614852  -0.0204988  -0.0925984  -0.1803358
  -0.6547985   0.2247273   1.0271595  -0.2754442   0.0788623  -0.7591077
  -0.1568824  -0.1196129  -0.0486029  -0.4475691  -0.0386761   0.3315073
   1.1832379   0.2179339  -0.1629710   0.0812138  -0.1760706   0.1326582
   0.7637619  -1.0137460   0.2182924  -0.6379878  -0.3070734   1.2148660
   0.2188126   0.2235886   0.4257829   0.7565609   0.5265355   0.3246108
  -0.3085739  -1.8704318   0.0946013   0.2343789  -0.1106172  -0.1534182
   0.1652021   0.8210124  -0.2869695   0.1849297   0.3452005   0.1717651
   0.1002209  -0.1329612   0.2976043   0.1548693   0.0223505   0.8405169
   0.6247005  -0.2419185   0.1281409   0.4279862  -0.1383072   0.0470529
   0.3383467  -0.8192977  -0.0105211  -0.8996285   1.0102943  -1.2423437
   0.3541183  -0.0326590  -0.1304233   0.4264355   0.0521303  -0.1703167
   0.0354113   0.1079992   0.2425354   0.1410841  -0.3818777  -0.1754492
  -0.0749717   0.2904052  -0.8236236   0.2957578  -0.2966063   0.4842504
   0.0040515  -0.0670100   0.2112185  -0.4889013   0.5374864   0.0684488
   0.5294189   0.3662596  -0.5169825   0.1552291   0.6602017  -0.2704985
  -0.2054291   0.9055339   0.2213348   0.2142035  -0.5285175  -1.5136089
   0.1528891  -0.1692051  -0.0354051  -0.2984100   0.1891466   0.7770331
  -0.2487118   0.9872894  -1.5348869   0.0729542   0.0076994   0.1507953
  -0.4699414  -0.0819400  -0.2300753  -1.0401926  -0.8290292  -0.0531808
  -0.2966043   0.1180311  -0.0905481  -0.1734765  -0.9905336   1.0900288
   0.5933730   1.7222322  -0.2647790   0.1671756   0.1360198  -0.0203333
   0.1397637   1.0523125   1.5459881  -0.3992079  -0.1714800   0.5253995
  -0.1151772  -0.3768614  -0.0068555   0.2551122  -0.4313014  -0.3323688
  -0.2430738  -0.8512375   0.0442870   0.3425169  -0.0365125  -0.0041077
   1.5537992   0.5376295   0.4423638  -0.9569755  -0.0226944  -0.7918553
   0.0517769   0.0759691   0.1657560  -0.6262359   0.1040489  -0.7514935
   0.7514426   0.4989041  -0.3032478   0.1408281  -0.1417858  -0.1697548
  -0.5317796  -0.1705619  -0.3649838  -0.1864231   0.1267691   0.2844498
  -0.1298139   0.1140820  -0.0585463   0.5655356  -0.4586754   0.2237090
   0.0102376   0.4044970  -0.3923162  -0.0504279  -0.3615294   0.0048660
  -0.1433766   0.0333422   0.0635902   0.3278055  -0.5108032   0.1078498
   0.1500921   0.1191474   0.0986267  -0.2154973   0.6394194   0.3688605
   0.2077570  -0.0104420   0.0142135  -0.2376271   0.0706134   0.2645500
  -0.9526873   0.2640138  -0.0271282  -0.0769114  -0.7197873   0.5192158
  -0.2624950  -0.0982060   0.0717949  -0.4491085  -0.1371024  -0.5513258
  -0.6347818  -0.1161013   0.1694959  -0.1222920   0.2793209   0.0194514
   0.9601688   0.5875631   0.4872034  -0.4820713   0.8092688  -1.3650961
  -0.1954562  -0.0791871   0.5404532   0.0441892  -0.5644479   0.9450952
   0.6700550  -0.6950283  -0.9962161   0.0539543   0.1526312   0.1020689
  -0.7910485   0.2190944   0.6992173  -0.1839102   0.3883957   0.1827333
   0.0157786   0.1350829  -0.1346791   0.6868627  -0.6944702  -1.2421095
  -0.6151219  -0.4395340   0.4205929  -0.0889895  -0.2309125   0.0578961
  -0.0507822  -0.0760436  -0.4643087   0.3070068   0.2428256  -0.5765994
  -0.2793462   0.0886005  -0.3071387  -1.3379744   0.5415931  -0.5203528
   0.3010822  -0.3234041  -0.1130860  -0.2945307  -0.0600798   0.0700654
  -0.3065724  -1.2868660   0.5228032  -0.6430917   0.0475928   1.3337673
   0.1231890  -0.1698338  -0.2458964  -0.0814718   0.4939234  -0.3464896
   0.8075793  -0.5716694   0.2810556  -0.1714273  -0.0256604   0.0949134
  -0.4424939  -0.2378627  -1.2846281  -1.0454173   0.0602805   0.6377047
   0.1169856   0.0804035  -0.1787132   0.5684829   0.3907389   0.1673717
   0.2450009  -0.7703345   0.2990799   0.2813380  -0.2524407  -0.0657601
   0.5265327  -0.8537166  -0.2110968   1.4119431   0.0366444   0.1177375
   0.1594518  -0.0903242   0.0582894   0.1374244   1.3864334  -0.1843268
   0.3544543  -0.5567816   0.3776572   0.1768080  -0.1666570  -0.3572784
  -0.6242452  -0.4385381  -1.0623428   0.0955165  -0.2246053  -0.5012847
   0.0227238   0.1408885   0.0520839   0.2863944  -0.0182844  -0.3951177
  -0.2759581   0.3691203  -0.1180682   0.0493880  -0.2120252   0.1183155
  -1.4195770   0.0940916   0.3548704   0.6760505   0.8715855   0.5427507
   0.1415381   0.1153772   0.0301958   0.2680759  -0.2621698  -0.2194273
   0.0654652  -0.6118862  -1.6601267  -0.0944244   0.0567966  -0.0807023
   0.1798553   0.6980836  -0.3011006  -0.3433047  -0.4302263   0.1779640
  -0.0834421  -0.0877438  -0.2227285   0.3107629   0.3581691  -0.5629828
  -0.5825178  -0.3080917   0.0149253  -0.1129449  -0.0844239   0.1501332
   0.4188312  -0.0148453  -0.5600055   0.7142393  -0.2902582  -0.1093819
   0.3390760   0.2029512  -0.0932250   0.5889662   0.2626057   0.1007407
   0.1746972  -0.1142896  -0.2442133   0.0794770  -0.2070591   0.0240108
   0.4909742  -0.2501393  -0.5559578  -0.4235060   0.2512318   1.1003881
   0.1746972  -0.1306971   0.0083214  -0.0329284   0.4358360   0.5477930
  -0.7523807  -0.4368909   0.5397785  -0.0772715   0.0963166  -0.3501664
  -0.2018169   0.1479807  -0.3008872   0.2299177   1.1248552   0.2728603
   0.0379094   0.4375017  -0.2930373  -0.1276080   0.7671331   1.2847409
   0.4128595   0.5880334  -0.1436606  -0.2042389   0.1132151  -0.5079430
  -0.5040509  -0.2434750   0.5043541   0.3928045   0.1098410   0.6843520
   0.0380949  -0.1558468   0.0100604  -0.3118000  -1.3113722   0.2751857
   0.2565614  -0.3640575  -0.0629724   0.1331910  -0.0384638   0.1895419
   0.2213906  -0.8163500   0.6189358  -0.6597941  -0.9501987  -0.5896110
  -0.1063631   0.1195312   0.1778065  -0.2453332   0.3035307  -0.5553611
  -0.5019043  -0.4102795   0.3949983  -0.0734162   0.1576121   0.2386734
   0.0329089   1.3147764   0.9946183   0.0320449  -0.0062963   0.0805025
  -0.0950736   0.2545650  -0.3566815   1.7359341   0.0348591   0.4340465
   0.4813481  -0.8022720   0.1861331   0.1692383  -0.4399255  -0.0370483
   0.7111756  -0.7869264   0.4714016   0.1207073  -0.1767066  -0.2996401
  -0.2964457   0.2004254   0.2783133  -0.7818548   0.0996711  -0.5316985
  -0.1701559   0.2822647   0.9463664  -0.2202266  -0.0178063  -0.0284885
  -0.4014865   0.6376673  -0.5864479  -0.2262815   0.3446547   0.0739273
   0.0959389  -0.0971553  -0.2137361   0.2462279  -0.1329633   0.1063203
  -0.4568065  -0.7006353  -0.4850764   0.1104411  -0.4116393  -0.0133930
   0.0641762   0.7032947   1.0695301  -0.0167311  -1.1975250   1.3923938
  -0.1745298   0.1632220  -0.5946214   0.4375916  -0.5775924  -0.8996108
  -0.8785777  -0.5899521  -0.5167020  -0.2630131   0.2124455  -0.2316423
   0.5175984   0.7660513   0.2765344  -1.0263607   0.1701196   0.6500603
   0.0922373  -0.1629963  -0.0539740   0.3540502  -0.4040864   0.2025335
   0.8752631  -0.0775285  -0.6782593  -0.2540067  -0.0244510  -0.0548745
  -0.4751776  -0.1188415   0.0233271   0.6629645   0.3820935  -0.3429879
   0.1890607  -0.2156879  -0.0856891   0.5555772  -0.6557714   0.0764121
   1.9371761  -1.3234416   0.9631565  -0.2793975   0.1449211   0.3856450
   0.4920385  -0.2927670  -0.2038099   0.1755642   0.3832181   1.4410206
  -0.0101390  -0.0071655   0.0369184  -0.5505776   0.1807836   0.6539102
   0.1248286  -0.1174042   0.3266208   0.0221617  -0.0485590  -0.2625048
   0.4497110   0.8250464   1.3682746  -0.0838931  -1.4863497   0.6892629
   0.0419319   0.0755957  -0.0421507   0.2203599  -0.4852302   0.3197648
  -0.1857526   0.2521318   0.1458835  -0.2433553   0.1107526   0.2321813
   0.0078155  -0.7595449  -1.6314615  -0.1428588   0.9665360   0.5243553
  -0.2707144  -0.2658595   0.1033573  -1.0545080  -0.3811309   0.0401345
  -0.4987664  -0.1096771  -0.0772189   0.0944295   0.0669495   0.0291966
  -0.1933826   0.0102279  -0.2693491   0.1251197  -0.2379171   0.1291777
  -0.5290209  -0.2128906  -0.0159091  -0.3510794  -0.3927691  -0.3399679
  -0.2179625  -0.6268521  -1.8147966  -0.0097715  -0.1563561  -0.1353194
  -0.8645708  -1.0816585   1.1378272   0.1500083   0.3269432  -0.0867091
   0.2417034   0.0253319  -0.3966592  -0.1798754   0.1695058  -0.2962740
   0.5476845   0.0938466  -0.0684833  -0.2385870   0.1999577  -0.0829251
   0.5108395  -0.9234143  -0.0397876  -0.1765477  -1.3301459  -0.8699389
  -0.2033768   0.1162271   0.2697616   0.0782848   0.0715299   0.2309388
  -0.3063352   0.1452940   0.2702753  -0.1318250   0.3461284  -0.1642686
   0.1388294   0.4292322  -0.3348924  -0.2708146   0.4182590   0.1598596
   0.0330539  -0.3077725   0.2110677  -1.3241543   0.2071667   1.1454340
   0.4679221   0.7062652   0.0521350  -0.3614118   0.1622551  -0.2409548
  -0.4148826   0.7333721  -0.9187987  -0.7821714  -1.1428257   0.3648098
   0.0553759  -0.2564663   0.1534695  -0.7776448   0.8613618  -0.6327646
  -1.5150675   1.2127579   0.3406386   0.2631811  -0.1871433  -0.0677943
  -0.6997891   0.2905314   0.0073268   0.9680782  -0.4253229  -0.1972215
   0.0550853   0.1581601  -0.0159028  -0.2283755   0.0882422  -0.1942694
   0.0045642   0.0411408  -0.4487521   0.0837223   0.1148250   0.0073795
  -0.6442623  -0.1151949   1.0406149  -0.5961271  -0.7115673  -1.3183905
  -0.0006299   0.0613801  -0.0133177   1.2046219  -0.6798596   0.6667148
   0.2821456  -0.0843035   1.3619911   0.2815579  -0.0272907  -0.3160451
   0.0255058  -0.2851169  -0.5495587   0.3617332   0.5270991  -0.6672006
   0.1061956   0.2145205  -0.1183115   0.1524621   0.3858564   0.2211524
   0.8064159  -1.2567030  -0.0496560   0.0167367   0.0957093   0.0114071
   0.1944222  -0.3121866  -0.4769443  -0.2643988   0.4746854  -0.3605243
  -0.0489181  -0.2372036  -0.0689682  -0.2866959  -0.1996393   0.2531315
   0.6152489   0.3776972   0.5941721  -0.1348607  -0.0832214  -0.0162848
  -0.4963170   0.9149354   0.6634242   0.0506434  -0.6141992  -0.3184314
   0.1863944  -0.2635233  -0.2236974  -0.2918774   0.0431887   0.4866621
  -0.0486741  -0.1947761  -0.4107163  -0.2317419   0.2078579  -0.1941090
   1.5539474   0.9129855   0.3801962  -0.1662624   0.8393711  -0.1731255
   0.0242690   0.2709471   0.3218911   0.6690614  -0.4434283  -0.4469796
  -0.0812224  -0.8094545  -0.6754481  -0.1707876   0.1425914   0.2327708
   0.1507368   1.0020855  -0.9451159  -0.1825892   0.1183172   0.3692696
   0.3523524   0.1669775   0.2681986  -0.0367582  -0.9205358  -0.2231744
   0.5756165   0.5147012   0.5667111   0.2781157   0.0220944   0.0232874
   0.0108394  -0.2839508   0.3647562  -0.0708231  -0.4851540  -0.0200836
  -0.1286532   0.3796252   0.1719840   0.7410549   0.8862110   0.1128742
   0.1581366  -0.1522006  -0.3520456  -0.1856306   0.1675035  -0.1994467
   0.5998556  -0.6899955  -0.1789326  -0.1388117   0.0060680  -0.0424122
   0.3102036  -0.0528528  -0.1879129  -0.3314256  -0.6258550  -0.4908372
   0.5094900   0.4845933   0.2942104   0.1252582   0.3280009   0.3402802
   1.0974915  -0.7409575   0.1758688   0.2984077   0.4305752   0.7791319
  -0.1000241  -0.0937503   0.0981982   0.6126450  -0.6312184   0.7366342
   0.4257840   0.9397023   0.1113711   0.0299327   0.0603279  -0.0364678
  -0.1230071   1.4096200   0.3219441   0.1573335  -0.5988051   1.1457420
   0.2638943  -0.0586088   0.0865052   0.0792337   0.4418434  -0.4209461
  -0.2339592  -0.1630619   0.5717413   0.2135713  -0.1114941  -0.2299424
   0.3962033  -0.9457548  -1.0324797  -0.6026317   0.1230389   1.3574729
   0.2166597   0.0960021  -0.1957939  -0.5001801   0.8554140  -0.3516651
   0.6850163  -0.0551838   0.1717857   0.1021004   0.1876588  -0.2391466
   0.4320388  -1.0971933  -0.6567913   0.2912013  -0.4313566  -0.4351861
   0.2116569   0.1421466   0.3400599   0.1627236   0.7652613   0.2138338
   0.5812148  -0.0181179   0.0419526  -0.0592861  -0.2796982   0.1272123
   0.8936162  -0.0439952   0.2746316   0.4450819  -0.0510807   0.2588215
  -0.0840903   0.0194889   0.2731308   0.1263105  -0.0124036   0.0180238
   0.3332039   0.1806125   0.4419461   0.1653446  -0.3868007  -0.1058445
  -0.1696075  -0.6049541   0.0256131  -0.0931187  -0.8458932   1.5777028
  -0.2741222   0.0976383  -0.0227122  -0.5926406   0.1533190  -0.0828807
  -0.4792550   0.6129034   0.3154225  -0.0087638   0.0760409  -0.0888787
  -0.1802846   0.0285912   0.0768084   0.1439556   0.2242383   0.0069081
   0.0862772   0.0029456  -0.0659676   0.2625321  -0.0746036  -0.5319842
  -0.7545462   0.0188709   0.1234105   0.0708710   0.0021503  -0.0028898
  -0.2251706   0.7073886   0.8547766  -0.0987023   0.3985282   0.3763841
   0.2885252  -0.0505831   0.1833453   0.0700788  -0.7164351  -0.8446992
   0.3949387   0.3110546   0.4882004   0.1836639  -0.2720481   0.1305310
  -0.4054368   0.0814060  -0.0281278   0.1208233  -0.4162607   0.7227087
   0.2614298  -0.0288668  -0.0766373   0.5711761   0.2610125  -0.8087025
   0.8378824   0.6044982  -0.2620006   0.1058336  -0.1575158   0.2551982
   0.4252817   0.7725333   0.3017686   0.7706594  -0.1995943   0.5119193
   0.0825198  -0.3676570   0.2336559  -0.7825527  -0.9512380  -0.4564597
  -0.0847084  -0.4596427   0.1995470   0.3302212   0.1908709  -0.7674391
   0.2518407   0.1306488  -0.7484755  -1.0653946  -0.8755492  -0.4142510
   0.0183650   0.0642410   0.3357941   0.2908162  -0.1738965  -0.0645813
   0.4703275  -1.8096214  -0.4031748  -0.3427583  -0.1833273  -0.1523201
  -0.3395832  -0.1167789  -0.2019913  -0.2017057  -0.0486519  -0.1532484
   0.1916606   0.2045689  -0.1686262  -0.7317173   2.3241731  -0.8913557
  -1.3734615  -0.4636689  -0.3674331   0.0889548  -0.0838307   0.2252565
  -0.1408600   0.1928339   0.2112394   0.1066526  -0.2691814   0.5910163
   0.2102349   0.0265412  -0.0565188   0.5077019   0.0864672  -0.8361956
  -0.3106870  -0.3036613   0.0042393   0.2996034   0.0832774  -0.1628756
   0.4505896   0.7350938   1.0821534   0.3005342  -0.0463955  -0.4367691
   0.0103662   0.0905914  -0.0859859  -0.2619290   1.3439995  -0.3348446
  -0.0905336   0.6993290  -0.2498970  -0.0747000  -0.1588573   0.1976643
   0.0863169  -0.8895410   0.0146008   0.6138583  -0.3408027   0.1506102
  -0.4291748   0.2870573   0.2024130  -0.3456160  -0.9789432   0.3445758
   0.0164856   0.5946991  -1.0497629  -0.0292842   0.2232463   0.1071987
  -1.4180428   0.2199005   0.5461820   0.3146553   0.7411147   0.3001300
   0.2261625  -0.1399389   0.1442700   0.4606137  -0.0944321   0.5873148
   0.7673035  -0.4314483   0.1122643   0.2071720  -0.2633929   0.1762305
  -0.9260627  -0.8747342  -0.3609652   0.8557356   0.3396392   0.5674599
  -0.4550118   0.2395729  -0.1481451   1.1233286   0.7915155  -0.2780330
   0.2225481   0.2001716   0.0928431  -0.3099358   0.0155393   0.0667358
   0.7252451   0.5011550   0.8212274   0.3665262  -0.0174370  -0.7582796
   0.1705137  -0.3593974   0.0269462   1.2200504  -0.3007087  -0.2172700
  -0.4842608  -0.4298279   0.2082958   0.0609846   0.0640816   0.1944723
   0.8129744   0.0625572   0.6462274   0.1384387  -0.2064207  -0.5524955
  -0.0072827  -0.1303815   0.1236905   0.2166309   0.5452887  -0.0012401
   0.1152624   0.5950450  -0.5302949   0.1439339   0.1349262   0.0893253
   0.1659836   0.2560741  -0.1756150   0.1459545   0.1167684   0.2623666
  -0.0990380   0.1467534  -0.1588983  -0.3956264  -0.6683719   0.9505530
   0.3720001   0.3170490   0.1742258   0.2525522   0.2571742   0.2953706
   0.1863291   0.3239176  -1.0095172   0.6392550  -0.7444948   0.4219418
   0.1570467   0.1427266   0.2651550  -0.2079369   0.1953722   0.6482875
   0.0734047   0.3502443  -0.2974136   0.1864425  -0.1205061  -0.0242010
   0.4427267  -0.9420263   0.5530218  -0.6705437   0.3704475   0.3732208
   0.1507840  -0.0475227  -0.1749148   0.6796113  -0.2440276  -0.4991175
   0.8292129  -0.5447772  -0.0147646   0.0148301   0.0870874   0.2097919
   0.4493505  -0.0547818  -0.1876780  -0.5623440   0.0715165   0.6228136
  -0.1162169   0.1582106  -0.0589896   1.0401123   0.4242976   0.1513376
   0.4867475   0.9830995   0.2016352  -0.1830676   0.0837848  -0.0998150
  -0.6136786  -1.2571900   0.1331935  -0.9103515  -0.7214557   0.7560885
   0.3718881   0.2253205   0.0162859   0.4308076   0.1908606  -0.7166126
  -0.6830222   1.3019762   0.1013163  -0.0117450  -0.2278658  -0.4491609
  -0.0490146   0.3183838  -0.4627261  -0.1306238   0.2202789  -0.4179082
  -0.1199192   0.0917259  -0.0466356  -0.1792542  -1.1294163  -1.3513651
   0.8552355  -1.1362941   0.1620069  -0.0586741   0.1532379  -0.1136683
   0.4231363   0.7551109  -0.4141277  -0.9872480  -0.6791122  -0.2151683
   0.1546530  -0.0347781  -0.0870288   0.0602904  -0.3367922  -0.9130206
   0.2224577  -1.1752054  -0.6408713   0.0422138  -0.0611654  -0.0558329
   0.1438354   0.2952542  -0.0746655   0.0207456   0.0082901  -0.0527822
  -0.1191058   0.0534120  -0.0488311  -0.4756317   0.4994654   0.2946374
   0.4321821   0.7042570   0.3528937   0.0680007  -0.2330212  -0.0503986
   0.2300893  -0.8841867  -0.1883417  -0.6020019   0.7080327  -0.4414845
   0.0610617  -0.0658862  -0.2898117  -0.9100672   0.8896123  -0.1885862
  -0.2649969   0.2110022  -0.1861700  -0.1028073   0.0446442  -0.0263921
  -0.4303516  -0.5528763   0.0966281  -0.4202701  -1.0720732   0.1363893
  -0.0991820   0.0597106  -0.0067519  -0.4695527   0.4768394   0.7641340
   0.3354380  -0.4293510  -0.9058614  -0.1378469  -0.0339682   0.2193724
   0.6931914   1.0428043   0.7199880   0.3974094   0.6405798   0.5776387
   0.1943372  -0.0055480   0.0164532   0.3554012  -0.4278585  -0.4817232
   0.1458257   0.0528100   0.7494460   0.2943715   0.1048617  -0.1642452
  -0.5486737   0.0777548  -0.0321757   0.0918104   0.4230147  -0.3675386
   0.0606333   0.0630622  -0.1592757   0.3743911  -0.4374617  -0.0510698
   0.3911544  -0.0266873  -0.1660562  -0.2789444   0.0375788  -0.1612621
  -0.9518362   0.4855327   0.3587266  -0.3466438   0.2132544   0.0905344
  -0.2330603  -0.3273779   0.1127037  -0.8524186  -0.4659869   0.6540168
  -0.7596467   0.3075629   0.3707790   0.0741077  -0.1509398  -0.0527862
   0.3187883  -0.0319663   0.0629179   0.0246871  -0.4154578   0.0080732
   0.0135620   0.1244694  -0.0647550   0.5274656  -0.1297942   0.1754327
  -0.4225475   0.4809183   0.8021431  -0.2024978  -0.1716127  -0.1748769
   0.1614727   0.7967902   0.3842502  -1.0509513   0.9199314   0.0644419
  -0.1891871  -0.0622065   0.2377860  -0.7069133   0.0848787   0.9355989
   0.3703783   0.6253498   0.5013685   0.0989955  -0.0426575   0.1427762
  -0.1710617  -0.2987929   0.3511273   0.8202625   0.4127427  -0.0603234
   0.0158913  -0.1599694  -0.1865300   0.0027129   0.5090417   1.1786015
  -0.4208391  -1.1323750  -0.7924820   0.1029921   0.1721767  -0.2828341
  -0.0003306  -0.0904069   0.9383330   0.3851986   0.1015664  -1.0576482
  -0.1696066  -0.3446866  -0.1477563   0.2328821   0.2776464  -0.5031935
  -1.0144508  -0.7070467  -0.4483478  -0.0788743   0.1095361   0.1632805
   0.2643897  -0.2557536   0.0964023  -0.5158729  -0.0894099  -0.2576190
  -0.0175890   0.0134681  -0.0109070  -0.0303177  -0.0253371   0.0034255
   0.4039691   0.9429608  -0.2097720  -0.0737720  -0.0256324  -0.0743690
   0.2675680  -0.2873231  -1.1187924   1.0355898   0.0759929   0.3040746
  -0.0813965   0.0834362   0.2066540   0.2577451   0.1189179   0.1291118
  -1.4034142  -0.1773627   0.6187340  -0.0748761  -0.0606863   0.1051530
   0.0351195   0.1482780  -0.0249642   0.1001679  -0.4303755  -0.2236628
   0.0218639  -0.4401357  -0.2216071  -0.0047084  -1.3444432   0.3806222
  -0.1998241  -0.0365178  -0.5062446  -0.1505593   0.1948928  -0.0360255
  -0.2487903   0.4418018   0.3077803   0.0345786   0.0646731   0.6748634
  -0.1328391   0.3294406   0.1024040   0.5769047   0.2805133   0.6196705
   0.1194003  -0.0124133  -0.7308469  -0.1581905   0.2490069  -0.1853533
   0.8969476   0.8562966  -0.2603017  -0.4800032  -0.0180914  -0.1464688
  -0.0718785  -0.1111360  -0.2314981  -0.1503917  -0.1035515  -0.0783616
  -1.0646296  -1.8310809   0.2793427  -0.0425320   0.1907190  -0.0422206
  -0.1355206  -0.8654926  -0.6672263  -0.0992542   0.2308652  -0.2023920
  -0.0734017   0.1548591  -0.1530117   0.7008465  -0.5674397  -0.3637394
   0.1184717   0.8504020   0.3934823   0.2884800  -0.0315170   0.0187738
  -0.2541621   0.2930044  -0.0067698  -0.2334087  -0.2061913  -0.5080759
  -0.0565746  -0.3895733  -0.2748312   0.5192772  -0.0157234  -0.8754582
  -0.0096420   0.5941379   0.2414343  -0.4208794  -0.2215144  -0.1389052
  -0.4297106   0.4901489  -0.5391807   1.2984703  -0.2348049  -0.4793117
   0.0185029  -0.2013331  -0.0926100  -0.1050887  -0.6181316  -0.5359794
  -0.0077440   0.4797399  -0.3787746   0.3463170   0.0147767  -0.0751936
  -0.4287382  -0.1329881  -0.1843497   0.2137165  -0.3813809   0.6132814
  -0.2789826  -0.2579605  -0.5001794  -0.0836420  -0.2063213  -0.7506023
  -0.3285227  -0.0885985  -0.3824509  -0.0902430  -0.0019591  -0.1910543
  -0.1214112  -0.3196444   0.2786401  -0.0733392   0.0311773  -0.2688507
   0.1887048  -0.2574535   0.1108886   0.5239650   0.3247308   0.3656816
  -0.5388413  -0.7578641   1.0813818  -0.3517417  -0.1627804  -0.1822076
  -0.7227306  -0.6324130  -0.4396526  -0.5198546  -0.1492214   0.1581147
   0.1113856   0.1073072   0.1268750  -0.6340700   0.3916687   0.3915533
  -0.5872767   0.3341906   0.3474258   0.1673558   0.3463294  -0.2164671
  -0.5649380  -0.0815688   0.0521343   0.3451354   0.6285313  -0.1914510
   0.3004408  -0.1560484   0.1435073   0.0745437  -0.6526616   0.6722769
  -0.4221877  -1.0561944  -0.3496273  -0.2769875   0.0068591  -0.1579926
   1.4014483  -1.1038080  -0.2280978  -0.7884901   1.1813053  -0.1825076
  -0.3027707   0.0804582   0.0233161   0.0047457  -0.0131854  -0.5359667
   0.3790972   0.0676481   0.2574374   0.0646863   0.0817273   0.1734659
  -0.4972769   0.3087993  -0.6916060   0.4797070   1.0226014   0.0471692
  -0.3157365   0.2753332  -0.0763688  -0.2573823   0.2228708  -0.1820956
  -0.4789867   0.5518825   0.4015461   0.2038941   0.1311257   0.1096581
   0.4284953  -0.2553550  -0.0609109   0.4277917  -0.2540610  -0.0538074
   0.1488211   0.0323537   0.2878936  -0.5557586  -2.0771889  -0.6517463
  -0.4342783  -0.5826287  -0.0012184   0.0200464  -0.0773935   0.0360375
  -0.4678628  -1.0608458   0.0549781  -0.1389015  -0.4167153   0.0838311
  -0.3405650  -0.0119959   0.1143833  -0.9499610  -0.3580860  -0.6026765
   0.0590964   0.4754454   0.0232074  -0.1416741   0.0623040   0.2595017
  -0.5782146   0.2920894  -0.0660156  -0.3057251  -0.5279129   0.4798258
   0.0983416  -0.1448364  -0.0265204  -0.2652418   0.6748639   0.9161042
   0.0636975   0.0185982   0.1183268  -0.0093578   0.1484879   0.1398412
  -0.3920405   0.0717090  -0.2895719  -0.3178783   0.2228117  -0.1161710
  -0.0584405  -0.0687780   0.0493405   0.5775817  -0.1603742  -0.4235476
  -0.5416823   0.0096325   0.3572344  -0.1828594   0.0652545   0.1209489
  -0.7457168  -0.9434070   1.8194737   1.0285596  -0.1057592  -1.0303466
  -0.0480451   0.1697563  -0.1634842  -0.4589454   0.5208741   0.1901745
   0.5319226   0.3211547   0.0445507  -0.3736655  -0.0465103   0.3373056
   0.3723434  -0.4274628   0.3233513   0.5539738   0.6087067  -0.0402453
  -0.0007466  -0.0211768   0.1516256   0.2175220  -0.1024934  -0.0905552
   0.0637173  -0.7430771   0.6509965  -0.0443162   0.2101872  -0.1744660
  -0.2957022  -0.1304940  -0.2983477  -0.2757152   0.0724181  -0.7276842
  -0.0897495  -0.0335664  -0.0569271   0.3673482  -0.1395229   0.4416934
   0.4714415  -0.6625664  -0.1582035   0.1035607   0.0212794   0.1274678
  -0.6709867   0.3562450   0.7137585  -0.7871561   0.2547976  -0.2318540
  -0.1363257  -0.2514803   0.1550195   0.4077601   0.2342017   0.0327109
  -1.0447541   0.3788176   0.7793528  -0.0258778  -0.1600858   0.1684245
  -0.1165351  -0.5753785  -0.4617585  -1.0039617  -0.9973166  -0.5017165
  -0.1056543  -0.1473019  -0.0693545  -0.1855453  -1.2466967  -0.1532127
  -0.1691173  -0.7964815  -0.1412845   0.1223586  -0.0862120   0.0477220
  -0.2056985  -0.5581442   0.0501058   0.8923391   0.1109510   0.4752785
  -0.1904382  -0.2147804  -0.0804340   0.1347898   0.7727927  -0.0307571
   0.5171625  -0.0384016  -0.3255530  -0.0831354   0.1058519   0.0407190
   0.0363204   0.0649981   0.2656221  -0.2189796   0.4224309  -1.3416895
  -0.1192956  -0.0358835  -0.0030330  -0.1350049  -0.1035760  -0.1958514
   0.0022890  -0.0707836  -0.1010121  -0.2171458   0.0034871  -0.3896629
   0.1690325  -0.3417282  -0.4190161   1.7419744   0.7542965  -0.3431471
   0.2188768  -0.3226100  -0.3520904   0.0804556  -0.0640089  -0.5380182
   1.1561695  -0.4981822  -0.7283340  -0.1961616   0.0175229  -0.1275275
   0.4224181   1.0617506  -0.7235450   0.6541441   0.6118198   0.2861649
  -0.0742795  -0.1204650  -0.0477916   0.1163630   0.2563746  -1.0519061
  -0.3317174  -0.5639373   0.7840826   0.3512185  -0.1901842   0.0026352
   0.4644902  -0.0732826  -0.5282999  -0.0199480   0.5081692  -0.3391487
  -0.1479384  -0.0720569  -0.0034077   1.3137197   0.0485958  -0.5477645
  -0.7064962  -1.3352316   0.9926058  -0.0214486   0.1917010   0.1015426
  -0.2232508  -0.5475172   0.0170531   0.1576601   0.6259725   0.3080273
   0.1628737   0.1065506  -0.2290649   0.3938078   0.3970858  -0.3682016
  -0.1857981   0.1295065  -0.4078413   0.0200633   0.4714765  -0.3090645
   0.1164720   0.1849071  -0.1139299   0.6053017  -0.6428835  -0.2881752
   0.0450110  -0.0988597  -0.1106316   0.0075240  -0.1720996  -0.0597394
  -0.0707869  -0.1010407  -0.0243673   0.0433573  -0.0840299   0.0824606
   0.6556840   1.6810572  -0.1086109  -0.6025720   0.3465816  -0.1314003
   0.1161962  -0.0464254   0.0177738   0.0494963  -0.0064616   0.0518086
   1.6471979   0.0673653   0.1301273  -0.0080358   0.1299069   0.0671640
  -0.8479714   0.0445999   0.2397174   1.1366668   0.1566941  -0.1159845
   0.0565889  -0.1327360   0.2060545   0.2352618  -0.0530038   0.1369030
  -0.0187432  -0.5999993   0.2166712  -0.1373869   0.0938866  -0.0402328
   0.4896131   0.8949086   0.1078319  -0.4190941   0.6101569  -0.6957917
   0.3962855  -0.1728971   0.1370929   0.9274029   0.1739907  -0.0998354
   0.0617868  -0.1945366   0.2780686  -0.1146768  -0.3555462   0.0762035
  -0.3739806  -0.1520015  -0.1307356   1.1188574   0.0172245  -0.3138379
  -0.2333120   0.3202626   0.0937399  -0.2085385  -0.0838098  -1.1392752
   0.7749870  -0.6234985   0.2898660  -0.0874228   0.0654273   0.0452744
   0.4500766   0.5451475   0.0347432  -0.2698231   0.0139388  -0.2738353
  -0.1081152  -0.2533459  -0.0051386   0.1930712  -0.7594213  -0.1763685
  -0.6448960   0.0545689   0.1194473   0.1599498  -0.1582639   0.0580587
  -0.0667620  -0.4265747  -0.0069983  -0.2684138   0.4270875  -0.4330756
   0.2199039  -0.2981512  -0.2312837  -0.3180065   1.2418861   0.1841407
  -0.5223490  -0.1619455  -0.6299027  -0.1410734  -0.3704659   0.0816972
  -0.2889746  -0.3926719   0.3776849   0.6123523   1.2345531   0.1659050
   0.0566710   0.1086213   0.1715967  -1.0708916   0.1633838   0.1461493
   0.2285751  -0.2956216   0.4218186   0.4363446  -0.3113494  -0.0730126
   0.4656171   0.1934991   0.1130730   0.2184711  -0.4648572  -0.2034563
   0.3779038   0.1975477   0.0313490   0.9088280  -0.5590286  -1.5296794
   0.8414284  -0.3076468  -1.0407363  -0.1198830  -0.0084680  -0.1195703
   0.0120958   0.2126000   0.0956368   0.0047089   0.0056291  -0.2730797
   0.0665396   0.0484029   0.0229576   0.8364680   0.2735844  -0.2091449
  -1.1174153  -0.7747081   0.6859723   0.2282512   0.0767173  -0.0763386
   0.3739232   0.0077810   0.4829552   0.7421625  -0.0949049   2.0392598
  -0.2305773  -0.0577496  -0.0196630   0.1556069   0.0964172   0.1186196
  -0.0742872  -0.4530084  -0.8499132  -0.1284211   0.0107349   0.0226575
  -0.7027007   0.6390017  -0.7837222   0.1956358  -0.4690453   1.0826557
  -0.2061855  -0.1389049   0.0545655   0.3500041   0.0498309  -0.4720417
  -0.0743125  -0.6573057  -0.5033968  -0.0365037   0.1901710   0.2071543
  -0.6423655  -0.1306965   0.1765896   1.6668161   0.1016782  -0.5482925
  -0.1367838  -0.0151338   0.0559074  -0.6794646   0.2561515   0.3347626
  -0.3855645  -0.1415713  -0.5862642   0.0311199   0.0470940  -0.1770429
  -0.5790992   0.4225474  -0.1377026   0.3496065   0.3966536   0.3326662
  -0.1212579  -0.1245364  -0.0061723  -0.5262367  -0.4231028   1.0809671
   0.5089443   0.3922872  -0.2297055   0.1551544  -0.0502206  -0.0081766
  -0.3367042  -0.5384640  -0.5236411  -0.1560963   1.5818199  -0.2072803
   0.2342369  -0.2770780   0.0088329  -0.0750852  -0.2031099   0.4033434
  -0.1638224  -0.3369074  -0.2681792  -0.2537747  -0.1368156   0.0242998
   0.7247043  -0.7045805  -0.9439086  -0.5371070  -1.1849577   0.5889472
  -0.0401855  -0.0459102  -0.1863430   0.1218845   0.1118341   0.2064127
   0.3751931   0.2068608   0.7524236  -0.0477814   0.1370707  -0.1221740
  -0.6878497  -0.4555611   0.0580972   0.8532299   0.4742918   0.4748735
  -0.2344030   0.0768747  -0.3651436  -0.3613376   0.3757609  -0.2511235
  -0.7599593  -0.5157020  -0.1334229  -0.0522326  -0.0869616   0.0130336
  -0.0523103  -0.1868612  -0.2335535  -0.0644767  -0.2542994  -0.3542778
   0.0848676  -0.2306438  -0.3512817  -1.0659587  -0.4357885  -0.4275282
   0.1437058  -1.1103805  -0.2180151   0.5049888   0.2250600   0.1833257
   1.0405040   0.7298341  -0.7871002   0.0448700  -0.6601922   1.1251552
  -0.0430653  -0.0369530  -0.1779620   1.3859115  -0.9788303   0.2012574
   0.2807559  -0.0181794  -0.2482950   0.1443598  -0.0363720   0.1262667
   0.8473679   0.7633794   0.2087499  -0.3245210  -0.6351656   0.0247817
   0.3092356  -0.2060375   0.0938376   0.0189214   0.9508620   0.3979181
  -0.2092215  -1.0108022   0.2855237   0.2526268  -0.3588686  -0.3234202
  -0.7536146  -0.1036566   1.0148904  -0.1166516   0.1165666   0.5734020
   0.0583425  -0.1876964   0.0916195   0.0865838  -0.0916731   0.3958914
  -0.3664634  -0.1319221   0.0339760   0.0321498   0.0218105   0.0611377
  -0.1529723  -0.0607267   0.0092600   0.2194770   0.4902709  -0.4470757
  -0.1785410   0.2413964   0.0532307  -1.4990070   0.1227387  -0.9897262
  -0.8848001   1.1754005  -0.6879503  -0.3646601  -0.0535910  -0.3192927
   0.6599559   0.0725978  -1.3618171  -0.4150420  -0.0502271   0.7974216
   0.1012563   0.0654597  -0.1164555   0.2533765  -0.0508571   0.3888929
  -0.3814188   0.0908187  -0.1552851   0.0489444  -0.0561874   0.2479883
  -0.9517697  -0.3197132   0.0506052  -0.0595144  -0.6575436  -1.1615434
  -0.0436417   0.2727935  -0.0047064  -0.0244568   0.6939485   0.3657636
  -0.9888982   0.9527142   0.8960637  -0.2398662   0.0466456  -0.2610398
   0.1398201   0.1491919  -0.0280096   0.0322122   0.3153572  -0.4813302
  -0.0684199  -0.1576212  -0.0947283   0.3313216   0.0879634   0.2251378
  -0.5656056  -0.1653076   0.1741328   0.4072259  -0.0200738   0.1522732
  -0.1184236   0.4867274  -0.0303242  -0.4748822   0.5312716  -0.2166015
   0.2849050  -0.0959850   0.2138889   0.1035000   0.1523338  -0.2027718
  -0.0924137   0.3331275   1.1392028  -0.0628776   0.3033155   0.1469090
   0.9054728  -0.8926221   0.6316928  -0.3785475   0.5974044   0.0031825
   0.5903430  -0.0685334  -0.1148716  -0.1984886  -0.5314699  -0.3925564
  -0.1253264   0.5596870   0.0475799  -0.3901491  -0.1423183  -0.0968201
   0.3077743  -0.2550051  -0.3671019  -0.5928710  -0.0872677   0.0781661
  -0.1971285   0.0624748  -0.1736148  -0.7942794  -0.7834891  -0.6603688
   0.0049073  -0.0353071   0.9383819  -0.0411965   0.3116946  -0.0247395
   0.0341282  -0.1662057  -0.0792062   0.1714467   0.4351275   0.2762353
  -0.0153155   0.0054034  -0.3975927  -0.6548726   0.0981617  -0.3877878
   0.0024537   0.7881473  -0.3519817   0.1628387   0.2326175   0.1375145
   0.2951437   0.4873983  -0.6044911   0.2458901  -0.0288227   1.0001156
  -0.1628417  -0.1486935   0.0831683   0.1975503   0.2294652   0.6460551
   0.1142415  -0.0869223  -0.1877701   0.3158546  -0.1223123  -0.3218727
   0.6308429  -0.4311073  -0.0344960  -0.0742789  -0.5112781  -0.6026640
  -0.1060441   0.0086002  -0.3855284  -0.1145241   1.2634782  -0.5195938
  -0.7732546   0.0949920   0.2242101  -0.1318588  -0.1420871   0.1432718
   0.0764485  -0.4578864   0.2833612   0.0401309   0.3868606  -0.1683893
   0.0314391   0.0598303   0.1560643   0.1420399   0.3288455   0.6284584
  -0.2139725   1.0272066   1.1612192  -0.0734939  -0.0621580   0.0092504
  -0.1629090  -0.4166904   0.3775850  -0.1992709  -0.4397969   0.3464948
  -0.2373479   0.1343615   0.1606807   0.1252030   0.4125467   0.3101778
   0.0505870  -0.3447966  -0.0696072  -0.0731114   0.0640835  -0.0706635
  -0.3291741   0.0837816  -0.2326016   0.1247508  -0.5652213  -0.0878816
  -0.1287392   0.1160326  -0.2385000  -1.0090542  -0.1787150  -0.3333833
   0.1657657  -1.5132377   0.2307482  -0.3023844   0.1904846   0.2707733
   0.9157047   0.2957122  -0.6010953  -0.0699857   0.1191097   0.0346638
  -0.4223368  -0.0329352  -0.1770409   0.2789250   0.1379345   0.6722866
  -0.8628616  -0.4681080  -0.8244172   0.2053667   0.0891749  -0.1988122
  -0.2432749  -0.0910940  -1.1248480  -0.2696684   0.7362543  -0.1704455
  -0.1644695   0.0527215  -0.0181179   0.3022772   0.0296290  -0.2453262
  -0.3670607  -1.2510425   1.2053034   0.2140957   0.2178910   0.3986725
   0.0426845   0.0721137   0.7090627  -0.3538458   0.1928962   0.3167015
  -0.0858127   0.0764735   0.2023034   0.0724369   0.0059915  -0.0191357
   0.0105713   0.2522107   0.5168118   0.2185656   0.0807742   0.1030031
  -0.2895038   0.3016684  -0.3404672  -0.1748993   0.3459837   0.2696655
   0.2064969  -0.1386177  -0.0737587  -0.2994856  -0.7235576   0.1850712
   0.3782312   0.1878648  -0.1095632   0.0518038  -0.1037268  -0.1354855
   0.3679247  -0.9003465   0.1459323  -0.1102622   0.0633656  -0.1556194
   0.1223184  -0.2427531  -0.1395498   1.0052346  -0.5345688  -0.2443323
  -0.6428224  -0.4477247   0.2804133   0.1901072   0.1558871  -0.2631576
  -0.2165741   0.0720288  -0.5535842  -0.1260697   0.1687111  -0.3320583
  -0.1891632  -0.0589180   0.2274643   0.0164447   0.1313699   0.2935084
  -1.0425678  -0.1704788   0.2769305  -0.2484090   0.0609010  -0.2035967
  -0.3038407   0.9205877   0.1434006   0.4841315  -0.4676143  -0.1068049
  -0.0561049  -0.1013830   0.1748047   0.2208011  -1.5914876  -0.7911929
   0.8071419   1.3684040   0.2157891   0.0512929   0.0517871   0.2750577
   0.2628325   0.3838539   0.8339621  -0.4015745  -0.5490336   0.0089840
   0.2829034  -0.2238943  -0.1107609  -0.1640383   0.4919396   0.0677018
   1.0072255   0.2690805  -0.8006432   0.0201130  -0.0068524   0.0380661
  -0.2201868  -0.1623088   0.0619495   0.5029277   0.2945752   0.0033041
  -0.3851480   0.1470216   0.1441310  -0.2319291  -0.4682960   0.4959330
  -0.8555020   0.0872133  -0.4314561   0.1322841  -0.0629716   0.0469082
   0.1071874   0.8621834  -0.0887826   0.2793815  -0.2214286   0.4364694
  -0.3512115   0.3151555   0.1914779  -0.3045872   0.1702394   0.6418576
  -1.2117685   0.1729943  -0.2312832   0.1518704  -0.1243330   0.1719326
  -0.6261883  -0.2075136   0.1270167   0.7845307   0.0730515   0.3670918
  -0.0952892  -0.0386070  -0.1661753  -0.5611607   0.6389603  -0.1978820
  -0.3570230   1.3364642   0.5985965  -0.0998845   0.2881539   0.1483523
  -0.3416338  -1.0342357   0.6374678  -0.0031928   0.7157772   0.3608883
  -0.2413211  -0.1333342  -0.1708954  -0.0708012  -0.4456705   0.0105624
   0.0284286  -0.6966850   0.1789206  -0.3240883   0.1210788  -0.0518063
  -0.1108143  -0.4853167   0.4340764  -0.0844054  -0.1396944  -0.0289874
  -0.0772362   0.1422529   0.2852454  -0.4086758   0.8302067  -0.5723722
  -0.0715516  -0.9225764   0.4672859  -0.2024449  -0.2372332   0.3890669
  -0.4801782   1.2856142  -0.3365695  -0.1884700  -0.1484272   0.7738360
   0.2721820  -0.0321710   0.0347592   0.4224742   0.2398805   0.0000998
   0.1153827   0.7666487  -0.5626182   0.0387780   0.0892168  -0.1767621
  -0.9603418   1.0164756  -1.0921390  -0.9770538  -1.0644576   0.2432073
   0.1644478   0.1708886   0.1014120  -0.5131793   0.1301703  -1.0040122
  -0.1548426  -0.6454092  -0.5881821   0.0063494  -0.0134280   0.0626305
   0.3889587   0.3892466  -0.2518841   0.2209530  -0.5772487  -0.1132076
  -0.1633763  -0.0906564  -0.0279225  -0.1751522   0.8472440  -1.5751451
   0.1822850   0.3026881  -0.3769199  -0.0288146  -0.0301807  -0.3998340
   0.4993740   0.3903980   0.0225392   0.2151165   0.1347448  -0.2119318
  -0.2731316  -0.1540995  -0.0398641  -0.0472420   0.3117328   0.4125242
   0.2908080  -0.0367610  -0.9685399  -0.1571487  -0.0579927   0.1270400
  -0.0223141  -0.5559888  -0.2847182  -0.4850866   0.3273170  -0.8190897
  -0.0107980  -0.1526640  -0.3027593   0.4624258  -0.2074009   0.0463402
  -0.4241487   0.0646184   0.0471204   0.1820102   0.2608092  -0.2218307
   0.3317080  -0.4713632  -0.8528869   0.3035874  -0.1205875  -0.3968293
  -0.0642542   0.1429340  -0.2871926  -0.5250741   0.0176041  -0.5089646
   0.2147372   0.3248811   0.5528883   0.2448026   0.3632175  -0.3851574
  -0.0954433   0.1038608  -0.1048198   0.4599381   0.5911780  -0.6971221
  -0.3486632   0.0616360   0.2020176  -0.5008827   0.2231711   0.8177100
  -0.7338445   0.6066686   0.3182679   0.0448023  -0.0545639  -0.1376058
   0.2383645  -0.4259397   0.6628176   0.0756156  -0.2187787   0.1436677
   0.0606144  -0.0742435   0.0675963   0.0414519  -0.2838677  -0.9546801
   0.6935741  -0.6861928   0.5745885  -0.0244425  -0.0040535   0.0256583
  -0.4092779   0.4720844   0.3847906   0.2072870   0.0939113  -0.5066440
   0.2536361   0.3893636  -0.0633531  -0.4555235  -0.5210010   0.4311313
  -0.6406218  -0.4375316  -0.4833533   0.3992845  -0.3048476   0.1632658
  -0.2500047   0.2077552  -0.6457711   0.8902712   0.4783557  -1.3491552
  -0.1315744  -0.0812408   0.2317347  -0.3825267   0.8040457   0.7789750
  -0.1580179  -0.5722552  -0.0819522   0.0096068   0.2771063  -0.1810885
   0.3988717  -0.6071982   0.5016170  -0.3718662  -0.1033196   0.3305232
  -0.1341126   0.0276959   0.0072156   0.0186898   0.5438562  -0.3126190
  -0.0961112  -1.5427986   0.0612734   0.0592739   0.0733990   0.0696851
   0.3252953  -0.1417863  -0.0654495   0.1831506  -0.1292088   0.0637591
   0.1136060  -0.0975209   0.2426173   0.3339692   0.5012895  -0.0054079
  -0.4537212  -0.2338049  -0.1296171   0.1334370  -0.2324276   0.5284276
   1.3577294  -0.8743536   0.4325145   0.6185650  -0.3111650   0.1037396
   0.3155080   0.1680833  -0.0813390   0.8164686  -0.9719344  -0.6214391
   0.3747015  -0.2384183   0.0524023   0.0724156   0.0359099   0.3838336
   0.1670985   0.0873985  -0.2099905  -0.2809797   0.5442697   0.5317538
   0.1006321   0.2826374   0.0228786  -0.1646655  -0.1179612   0.0129605
   0.6197243  -0.1792556   0.2148788   0.1712511   0.1631338   0.0059174
   0.2123750   0.0895006   0.1913393  -0.1208751  -0.0359650  -0.0784319
  -0.0326675  -0.5656787  -0.0134999  -0.3196839   0.5914655   0.3860166
  -0.5101876   1.2234115   0.8872884   0.2329782  -0.0908225   0.0243703
   0.3415608  -0.3875528  -0.2040527   0.1403727   0.6184586   0.6894939
  -0.0549650   0.5386281  -0.1326771  -0.0684294   0.7351897   0.0371462
  -0.2491554   0.1379119   0.6078182   0.1681630  -0.1170051  -0.0502267
   0.1945417  -0.2227391  -0.0913880  -0.0119876   0.7880900   0.2925156
   0.1741304   0.1385374  -0.0723677  -1.0139432   0.7600627   0.6223881
  -0.0629587  -1.1495448  -0.2002593   0.1703948  -0.1866161   0.2637146
   0.1679178  -0.4088846   0.0822313  -0.1229872  -0.6783029   0.6912768
   0.0546480   0.0372135  -0.0884317   0.2814355   1.4623444  -0.7011622
   0.5384820   0.5675250  -1.0891821   0.0307986  -0.1331831  -0.2154507
   0.0282997  -0.4560588   0.8531955   0.0118226   0.2824201  -1.7615205
  -0.0266823  -0.0353695   0.0361151  -0.1594150  -0.8900712   0.4119567
  -0.8408951   0.5004220   0.7169359  -0.1375961   0.0322650  -0.3411450
  -0.7516443   0.1435808   0.2270635   0.1574102   0.4594759   0.1255526
  -0.1320515   0.2642624  -0.2878667  -0.1893047  -1.2633748  -0.4424531
  -0.0541864  -0.1719583  -0.0945107  -0.2694321   0.1329271  -0.1742801
  -1.0919671  -0.0006817  -1.0659462   0.7194050  -0.3183425   0.1966078
   0.2623215  -0.0806382   0.1610302   0.7375686  -0.5937470   0.0868554
   0.2660140  -0.0797138   0.0288692  -0.3723145   0.3273997   0.1075464
  -0.3092460  -0.0551772  -0.4201787  -0.6311956   0.7156073  -0.0376191
   0.0623335   0.0940715   0.2113503  -0.0970713   1.0116541   0.4463811
   0.2000160  -0.6849932  -0.3446550   0.1276007   0.1087840  -0.2741272
   0.0325963   1.1607996  -0.2847830  -0.0087440   0.3665942  -0.5775669
  -0.2849386  -0.1778229   0.0592385  -0.6625104   0.1939566   0.1365479
   0.6578454   0.4757238   0.3348040   0.0848626  -0.0462778  -0.0620268
   0.0924668  -0.0710710  -0.2215287   0.0101656   0.5680739   0.7092898
   0.1994994  -0.2249585  -0.1520613   0.2382838  -0.7026020   0.1061717
   0.6993689   0.0708726   0.1855441  -0.0956477   0.1392331   0.0038476
   0.2493955  -0.9572150   0.3760751  -0.4448770  -0.1744563   0.7121818
  -0.0982141  -0.0806443   0.0109678  -0.7550564  -0.1527022   0.8146062
  -0.7941970   1.5456948  -0.0428504   0.3033650  -0.0084347  -0.0688204
   0.4419308   1.4052649  -0.4299938   1.6845629  -0.2467653  -1.1762185
  -0.0077710  -0.0584483   0.2787655  -0.7297039   0.4162012  -0.6241256
  -0.4487919   0.2528558  -0.3813774  -0.0313223  -0.2123972  -0.0748967
  -0.5695908   1.2027175   0.3374601  -0.5727304  -0.2241535  -0.2359406
  -0.0529395   0.0440913   0.0502508  -0.1455026  -1.3990638   1.3884617
  -0.0584740   0.1271959  -0.0948217   0.1901948  -0.2898737   0.3843985
   0.4218486  -0.1276684   0.0995903   0.1552408  -0.4734516  -1.0587772
   0.2189957  -0.1244751  -0.0855973   0.8442683  -0.1843364   0.2902341
   0.0964842   0.6541842   0.2372851   0.4699515  -0.1649297   0.0459192
   0.4602182  -0.4184971  -0.2431091  -0.2273341  -0.3117712   0.1467135
   0.4239148  -0.1796153   0.2007883   0.4569215  -0.5322155   0.2951778
   0.4191316  -0.0812192   0.1876141  -0.3232153  -0.0638721   0.1627348
  -0.3386784   0.3972417  -0.1252772  -0.4624971  -0.8162739   0.1690406
  -0.0969013  -0.2269158  -0.2783286  -0.0637268  -0.9152651  -0.7134557
  -0.2235324  -0.4607813   0.4958991  -0.4606021   0.0967883   0.2784501
  -0.7367626  -0.3425243   0.7034174  -0.7201040   0.3171274  -0.4242573
   0.1075727  -0.1602418  -0.0169187  -0.1769490   0.5191360   0.2001775
  -0.6997813   1.2967294   0.5561646  -0.0630705   0.0398464   0.1319148
   0.1267000  -0.1797338  -0.4970071  -0.1218267  -0.0378751  -0.0412076
   0.2896110   0.2069777  -0.2114978   0.1757822   1.2933093  -0.5298684
   1.0747278   1.0599445  -0.0139591  -0.0279885   0.1686379  -0.2494615
   0.5821316  -0.6583214   0.7856396   0.2184083  -1.0036222  -0.4762022
  -0.1740842   0.1493986  -0.3056709   0.0789788   0.4388804  -1.2748464
   0.7252332   0.3220650   0.2782468  -0.2133798  -0.1086548  -0.2558223
   0.3425917  -0.2389539  -0.2630923  -0.6140337   0.4620307  -0.6395828
  -0.1145321  -0.1763790  -0.1311506   0.0070475   0.0118054  -0.3604057
  -0.0172033  -0.7810929  -0.4928942   0.0252012  -0.2167492  -0.5405837
  -1.3465797  -0.4339197  -1.2929384  -0.3724213   0.0804524   1.0004018
  -0.0063907  -0.1277435  -0.4313622  -0.4301400   0.6204239  -0.4880123
   0.0717032  -0.6108129   0.0241520  -0.0212384  -0.1880748  -0.0775395
  -0.2273820   0.9749093  -0.8660692  -0.7004219  -1.2311829  -0.2561655
  -0.4635713  -0.1775676  -0.2351345   0.0668632  -0.3720664   0.4467580
  -0.7105825   0.1288812   0.2547858   0.0375196  -0.0546361   0.4444574
  -0.5608979  -0.5107702   0.4336081  -0.7631543  -0.6753892   0.3867474
   0.3042382   0.1090247   0.1604442   0.8258159   0.0678447  -0.0678402
   1.0476114  -0.6068450   0.9532705  -0.0124586   0.0677686  -0.0512996
  -0.3568336   0.8385315   0.2369765   0.2819525  -0.5052546  -0.3601679
  -0.0103774   0.2024869   0.2867897   0.4323711   0.3279673  -0.8399928
   0.2470627  -0.6243091   2.1843728   0.0176403   0.1533600   0.2732272
   0.6980770  -0.7667566   0.7685521   0.3906401   0.5902687   0.1454097
  -0.3617712  -0.0629415   0.0679015   0.2867267   0.5680555   0.4232838
  -0.3369117  -0.2685941  -0.4193002   0.0807387   0.0888007   0.0910881
  -0.4426164  -0.1681915  -0.4741272   0.3000366   0.0430734  -0.4426642
   0.2371372  -0.4881712   0.1078471  -0.2406806  -0.8367381  -0.3567283
   0.5853450  -0.1363872  -0.5559942   0.0998747   0.0628724   0.1312717
   0.2377372  -0.3757077   0.2032263  -0.1471631   0.4276081   0.1012195
   0.1517092  -0.0635259   0.0135326   1.5643752   0.0830575  -0.5080272
  -0.3683249  -0.1708725  -0.8201703  -0.0925172   0.0143954  -0.0792601
  -0.8695269  -0.6381890   0.1637001   0.6790394   1.1053565  -0.2618245
   0.1279324   0.0153524   0.0128274   0.1926304  -0.2040988  -0.2759490
   0.4378902   0.0214561   0.2041041   0.0540327   0.2394359  -0.2916281
   1.4858562   0.2124557  -0.1639921  -0.3678459   0.4263527   0.8630034
   0.0122786  -0.2490507  -0.2637182  -0.2697221  -0.8516564  -0.4761067
   0.3305237  -0.0922891   0.1552567   0.0008301  -0.0346582  -0.0748700
   0.2692956   0.5750294  -0.1923904  -0.2079382  -0.0031742   0.6769194
   0.1896330  -0.0570773   0.1276875  -0.0889812   1.1925532  -1.2900974
  -0.9402837   0.4914449   0.8188422   0.2335075  -0.2839691  -0.0532330
  -1.0385723  -1.6067644  -0.4880605  -0.1819545  -0.4624054   0.2022241
  -0.3244486  -0.1230189  -0.1116684  -0.2640136  -0.3626741   0.1313260
  -0.1723916  -0.7288226   0.3549750  -0.0455167   0.1552342  -0.0043359
  -0.4394213   0.9824554  -0.6055596   0.4457571   0.5121426   0.8656983
   0.1105092  -0.0315844   0.2379588  -0.0085698  -0.0278153  -0.8693699
   0.9279045   0.6837016  -0.0003264   0.0178309  -0.0122635   0.2256338
  -0.1995353  -0.0918698   0.0876395   0.2150128   0.0963979   0.0403803
   0.0588154   0.2954764  -0.2969570   0.9832205   0.9664131   0.2141525
   0.0276018  -0.3950020   0.3380511  -0.0709693   0.2102645  -0.1204669
   0.2461474   0.2974789  -0.0989586   1.6328081   0.6867867  -0.2756241
   0.0821078  -0.3424288  -0.2107378  -0.1229234  -0.5283838  -0.3156607
   0.0237777  -0.2311367  -0.3991733   0.0487909  -0.3257593   0.1216824
  -0.2184323   0.2081430  -0.2143460  -0.0273300  -0.5388333   0.0344110
  -0.0347474   0.0751041   0.1833772   0.8781758   0.3890048  -0.2530228
   0.1696961   1.5719899   0.1906599  -0.0838883   0.2912072  -0.0492771
  -0.5060040   0.5942295   0.0438494   1.3686736   0.3878614   0.1812773
  -0.1827260  -0.0303119  -0.2621951   0.0787676   0.4258573  -0.5301101
  -0.1542696  -0.1630573   0.3185569  -0.1094430  -0.0134383   0.0707449
  -0.0001675  -1.3673921  -0.6691916  -0.6677675  -0.5277638   0.4150622
  -0.0996914   0.3444804   0.3526334   0.2462706   1.0390303  -0.4214311
  -0.1547456   1.1913751  -0.3722687  -0.1998980   0.1417480  -0.0009361
  -0.4045663   0.8091088  -0.7122760   0.3216889   0.5281374   0.2924404
   0.0076151  -0.1036914  -0.1369217   0.0105696   0.1084686   0.2691160
  -0.2588701  -0.0869162  -0.5340018   0.0071197  -0.1762733  -0.2746647
   0.3418006  -0.8292706  -0.9103292  -0.0817900   0.2909955   0.0346841
  -0.2720272  -0.2252005  -0.2298397   0.5957256  -0.3337938  -0.5162354
  -0.9808497   0.0997630   0.2368130  -0.1445608  -0.3052669   0.0247268
  -0.1734358   0.6351934  -0.0432527   0.4549621   0.7623684  -0.9080048
  -0.3432098   0.2633710  -0.1760143  -0.5959116  -0.3219103   0.3233088
   0.4107459   0.4751818   0.7168972   0.1529056   0.1705002  -0.0134672
   0.2022682   0.0090949  -0.5202653   0.2607429   1.1387534  -0.2919202
   0.1407592   0.0930067   0.2000235  -0.0020132  -0.2515663  -0.7778881
   0.0672913   0.0470130  -0.0507622  -0.1575021   0.1164759   0.0516265
   0.6599384  -0.3945717   0.6849763   0.3598117   0.4892343   0.2836891
  -0.0452098   0.1463807  -0.3441891   0.7007831   0.4019257   0.7053355
   0.3010954  -0.5951313  -0.4377813  -0.3181699  -0.2129917  -0.0437398
  -1.1696128   0.0500796   1.1962565   0.2927077   0.0218471   0.3662868
   0.3734043  -0.1653680  -0.2204728   0.2737597  -0.2263845  -0.2864247
   0.4829708  -0.2334561  -0.2726938  -0.1776022  -0.2205827  -0.1530550
   0.1579733  -0.1234144   0.0242065  -0.4437617   0.0224596  -0.5270373
   0.0134346   0.1193993  -0.2194083   0.0536141   0.0504995  -0.1284397
  -0.2493084   0.0374085  -0.2070529  -0.0862764  -0.2178182  -0.1290192
  -0.0350990  -0.1609622   0.1432944  -0.3300183  -0.4930561  -0.5099846
   0.0555294  -0.0387066  -0.0415048   0.5125580  -0.5045071  -0.4179963
   0.5016961  -0.0104895   0.2910620  -0.2487467   0.2112866   0.1459202
  -0.2433132  -0.1180491   1.0720498  -0.2108426   0.4239429  -0.3919094
  -0.1239485  -0.2775438   0.1714066   0.1463250  -0.3546702   0.3050578
   0.5988463  -0.5432032  -0.3084704  -0.1564968  -0.1370576   0.1702830
  -0.2621498  -0.5527564   0.3082950  -0.1145589   1.1544330  -0.0224404
  -0.1327942  -0.2833929   0.1326252  -0.2463390  -0.4111930  -0.3059780
   0.4146773   0.4941961   0.7926442   0.1582280   0.1196953  -0.1011734
  -0.6059885   0.0771420  -1.9004676   0.1714256   0.0389545  -0.3944014
   0.0748237  -0.3290799   0.0629040  -0.9466305   0.4366970  -0.3313579
   0.4661817  -0.5373992  -0.5225223  -0.2277125  -0.0625445   0.1997454
  -0.1845226   0.1007358  -0.1484344   0.5532351   0.4338760   0.1036780
   0.0555288   0.1741226  -0.2528904   0.5987378   0.4131006  -0.2532024
  -0.8498175   0.3486297  -0.0095725   0.0481179  -0.1768591  -0.0261288
  -0.4517772   0.3461824   0.4503826   0.1219919  -0.4277231  -0.1855039
   0.2075032   0.0770032   0.0537715  -0.8902886  -0.0256074  -0.4770665
  -0.1461682   0.0430816  -0.1539522  -0.4799218   0.0118862   0.0397030
  -0.5482141  -0.1983965   0.2226229  -0.7211588  -0.0217600  -2.2709770
   0.2333123  -0.1147372  -0.0607358   0.3239214   0.2939748   0.4605552
   0.4982607  -0.6068773  -0.7404055   0.2826764   0.1944629  -0.1433414
   0.0964583   0.3675300  -0.1746554   0.4771557   0.3176861   0.4421346
   0.1429213  -0.2940224   0.1665471   0.0976075  -0.1763764   0.3272991
  -0.1341913  -0.7911820  -0.1773394  -0.1351679   0.1477371  -0.3279440
  -0.9768645  -1.0924610  -0.0164701  -0.2880630   1.2722066  -1.1032412
   0.0814144  -0.1967057  -0.0164498  -0.4722758   0.2159579  -0.1298398
  -1.3209103  -0.4486553   0.7560331  -0.0696947  -0.0784550  -0.0253384
   0.7868231   0.1678259  -0.4685288   0.1293312  -0.8927601  -0.1163477
  -0.0133701  -0.3702991  -0.1674995   0.3147113  -0.1278126   0.3315126
  -0.0090504  -0.4452171   0.0252286  -0.1527474   0.0795431  -0.2079793
   0.4475835  -0.4622010   0.0049436   0.3684328   0.2035614   1.1949813
  -0.0411208  -0.0900122  -0.2064066  -0.4237490  -0.3452811  -0.2990750
   0.1477500  -0.2752641  -0.4778994   0.1055792   0.0817069  -0.2038936
   0.1193797  -0.7282332   0.1672339   0.1321804  -0.7456866   0.1163437
  -0.1809698  -0.0891921   0.0454997  -0.4265539   0.3861448  -0.2491067
  -0.4476592   0.4669788  -0.7769472   0.1800523   0.1203024   0.0446730
   0.1985558   0.2807045  -0.0722281   0.4568147   0.9326435  -0.5162843
   0.3572481  -0.0294162  -0.2881786   0.5547388   0.0667208  -0.6549953
   0.7155489   0.6049046  -0.2216916  -0.3122028   0.2985365   0.1338735
  -0.3621652  -0.6025177  -0.9498570   0.5753211  -1.1740456   1.1341684
  -0.1786727  -0.3150104  -0.2924514  -0.3619968  -1.2391766  -0.0971339
   0.6968232  -0.2719938  -0.0006820   0.0003864   0.1299243  -0.1656493
  -0.2456261  -0.1317365  -0.1018028  -0.4752695  -0.3916287  -0.0665417
   0.3888810  -0.1132047   0.1251359   0.3890530  -0.1260672  -0.3525905
  -0.0995634  -0.3905079   0.4870626   0.3175659   0.2842012  -0.0281424
  -0.4253553   0.0589552  -0.2972350   0.7272324   0.9723339  -0.5878443
   0.2132120   0.2253487  -0.1863608  -0.2738639  -0.3005134  -0.8118696
   0.2635330  -0.5416394  -0.2629645   0.1864457  -0.0304349   0.1389300
   0.2864391  -0.0994628   0.0917280   0.2035163   0.1157239   0.1223988
   0.1855812  -0.1356880   0.5709006   0.2149817   0.2942327   1.2712877
  -0.1580281  -0.0402524   0.3004774  -0.0316078   0.0658682   0.1891137
   0.2162882  -0.6764008  -0.1777210  -0.1800443   0.0500419  -0.5408574
   0.0328987   0.0408900  -0.0350297   0.0076671   0.1745312   0.0665503
  -0.5118730  -0.0506802  -0.0100699   0.2874813   0.1414724   0.0082727
   0.2680499  -0.2455544   0.6269621   0.1919215  -0.0236625   0.1423963
  -0.1240894  -0.2624484   0.1642092   0.1554266   0.2051402   0.4072310
  -0.6979219  -0.2128992   0.3593714  -0.1998907   0.0710538   0.0899392
   1.1107871   0.8951439   0.0136689  -0.4161674  -0.0589570  -0.9398570
   0.0404300  -0.1875689  -0.0805307  -0.9579042   0.3001696   0.1814091
   0.2285507   0.6657196   0.8567536   0.0707961  -0.0660970   0.0845651
   0.3416983   0.0322463   0.1056016   0.0683869   0.2858142   0.0804846
   0.0025791  -0.0805408  -0.5086115  -0.4513189   0.9251963  -0.5101082
   0.0469502  -0.2817552  -0.1402232  -0.0498910  -0.1628318  -0.1910179
   0.1451687  -0.2986709   0.0310098  -0.3032130  -0.3143514  -0.1121165
  -0.0705622   0.2773274   0.0147602   0.1259005  -0.1043352   0.8451739
   0.2387451   0.9099282   0.0758336   0.2368269   0.1593110   0.3975921
  -0.0501286  -0.1747128   0.0587018   0.6529325   0.5151703   0.8150625
  -0.1648903  -0.2496908   0.1700421  -0.2016389  -0.7649436  -0.3609172
   0.2216498  -0.2821585  -0.0317677  -0.1786839   0.0211565   0.1388755
  -0.4484277   0.0590006  -0.5898442  -0.2109563   0.0185218   0.0419635
   0.1223697   0.0541406   0.2109792  -0.0523745   0.0107801   0.2406540
  -0.9741766  -0.1864460   0.3876745   0.0729632  -0.3678273  -0.2644864
   1.3550588   0.5733404  -0.1244837  -0.7924733   0.4948529  -0.7049346
  -0.1646796   0.1274439   0.1402273  -0.6853275  -0.5031098  -0.9370576
   0.2762384   0.0392736   0.5871233   0.0428309  -0.0230885   0.2675565
  -0.2312937   0.0254161   0.4673730  -0.2911763   0.1034244   0.5955769
  -0.0203240  -0.2543018  -0.0798650   1.4091238   0.8624941  -0.3106821
  -0.2745783  -1.5617530  -0.3008497   0.0331568  -0.2201582   0.0721437
   0.6692513  -1.0402109   0.7963058   0.2288616  -0.5331709  -0.3486160
  -0.1258238   0.3171782  -0.1551071  -0.1388600  -0.0363196   0.4368654
  -0.1532959   0.3987231  -0.2933097  -0.1919655  -0.5795972   0.0345758
  -0.1778976   0.0403653  -0.8777419  -0.1325247  -0.4037142  -0.3942483
   0.1807992   0.3966572  -0.1047929   0.0997024   0.1685937  -0.1220606
   0.0456366   1.1417870  -0.3498014   0.0929672  -0.2029986   0.2429136
  -0.6980224   0.6418242   0.0488739  -0.2637616   0.1619982   0.0401594
   0.0107919   0.0462308  -0.1013765  -0.3736488  -0.3515201   0.3390022
   0.0260489   0.2016272  -0.0269055  -0.0589424   0.0343260   0.0498919
   0.3339221  -0.6952742  -0.3503047  -0.8572492   0.1648645  -0.4440927
   0.0415384  -0.0371107   0.0715605  -0.6959829   0.9937514   0.2631344
  -0.6729628   0.8462735   0.3303940  -0.1095897   0.0659453  -0.0112864
  -0.3238329  -1.1089564   0.2242472   0.3829648  -0.1269036  -0.4600479
  -0.0445439  -0.2033121   0.1566006  -0.5802566  -0.5373577   0.5090840
   0.0396611   0.1449599   0.4796618  -0.0708821  -0.0730729   0.0323377
   0.3234115  -0.0911035   0.4367901  -0.1062641  -0.0624975   0.0149262
   0.1006248  -0.2112348  -0.0627050  -0.6181511  -0.0765152   0.4699678
   0.6485370  -0.6248309  -0.1751985   0.1032022   0.1400998   0.0480441
  -0.5634429   0.2600526   0.7181827  -0.5859997   0.4188207   0.9094192
  -0.2167631   0.0901778  -0.0486751   1.0391560  -0.0597674  -0.6546835
   0.7246205   0.6141384  -1.0703174  -0.2104735  -0.0185708  -0.0298958
  -0.3800646   0.0494616  -0.3159058   0.1518384   0.1736992   0.4775844
  -0.1555694   0.0954603   0.0006160   0.7890831   0.2688121   0.4925938
   0.9881114  -0.4414909  -1.2190789  -0.0237398  -0.0977529  -0.3404926
   0.3207273  -0.4389143  -0.5932620   0.2072231  -0.4328349  -0.6051113
   0.0496956  -0.1296394  -0.0519901  -0.3093942  -1.1142591   0.7039080
   0.3249278  -0.6516133  -0.1272838   0.1520445  -0.0728546   0.1258180
   0.7358145  -0.0270868  -0.2617633  -0.5565361  -0.1540394  -0.8782385
   0.0986153   0.1145624   0.1294082   0.4949270   0.4713125  -0.8831850
   0.2886129   0.2255314  -0.2949486  -0.0018442  -0.4074060  -0.0902045
  -0.5759231  -0.5641959  -0.9136858   1.0463882   0.1785052   0.8089438
   0.0215815   0.0174526   0.0138146   0.2563549   0.0415317   0.7739404
   0.6065752   0.0983124   1.8432339  -0.1600661  -0.0782985   0.1198240
  -0.3488750  -0.0907444   0.3098774  -0.5063191   0.4171980  -0.1175112
   0.2462935  -0.0671524  -0.2785954  -0.3251744  -0.0884149   0.3156396
   1.1186445  -0.3897183  -1.1699469   0.3671690   0.2995782   0.0806009
   0.8852082   0.5985775   0.0537642   0.0313397   0.3457102   1.4984104
  -0.0664695  -0.3049898   0.1615747  -0.1166783  -0.0861509   0.2180274
  -0.0565124   0.3128925   0.5229150   0.4574625  -0.2543854  -0.2244995
   0.6438101   0.0433506   0.5977010   0.5617672  -0.5846351   0.4245202
   0.1082594  -0.2674573   0.0060421   0.5432625  -0.0125699   0.7847112
   0.5589213   0.8518575   0.3922503  -0.0252090  -0.0854426  -0.3747754
   0.0039212   0.6590072  -0.4335802  -0.1006905  -0.3418171   0.9874389
  -0.0880815   0.0083060   0.0114769   0.3260687  -0.2160912  -0.2408587
   0.1151328  -0.6406940   0.0849038   0.0179987  -0.2555273   0.0482200
  -0.9483582  -0.1078120  -1.8366096   0.6301266   0.4371768   0.1852749
  -0.3128384  -0.0398913  -0.0072389  -0.4458964   0.2380162   0.0564917
  -0.1460459  -0.3596022   0.5671762  -0.1395590  -0.1217942  -0.3887895
   0.4257314  -0.4465762   0.8596173  -0.1647152   0.2972675   1.2804220
   0.0383044  -0.3187345  -0.2461212  -0.1064832  -0.2313551   0.2268810
  -0.2170834  -0.3934938  -0.0864588  -0.0857546   0.0699131  -0.1643500
  -0.3348796  -0.5435731  -0.5734770  -0.5030136   0.7130314  -0.2999458
   0.2854632   0.1869220   0.2262604  -0.2688246   0.4251694   0.6310771
  -0.2753299  -0.0308022  -0.2528633  -0.2877647  -0.1972212   0.0571882
   0.4739018   1.4686031   0.8549807   0.5528232   0.0020704   0.2288586
  -0.1026122  -0.0035223  -0.3333543  -0.7457951  -0.2050690  -0.1975954
  -0.1296595  -0.0154351  -0.3240397   0.0427241  -0.2414063   0.2165195
  -0.8451491   0.2869762  -0.6295459  -1.1099708   0.2147515  -0.6695562
   0.0290826  -0.1474211  -0.0138199  -0.1198691  -0.1119874  -0.1954838
   0.0157977  -0.7068499   0.7878291  -0.2117834   0.0803784  -0.0889498
  -0.3508699   0.4025133   0.0610442  -0.2808071  -0.5212344  -0.6526274
  -0.2251846  -0.1562454  -0.1214004  -0.3487137  -0.2516348  -0.1656232
  -0.2458727  -0.0387828  -0.3189073   0.1577847   0.2666744   0.1357965
   0.2291635  -0.0412571   0.5638318   0.5414898   0.6200678  -0.2092677
   0.0151299   0.1520122   0.0132743  -0.2341567   0.2239452   0.5387591
  -0.2413556  -0.9413512  -0.2333332  -0.0413730   0.2024321  -0.1722316
   0.1659931   0.0255915  -0.4589712   0.0151121   0.6374185  -0.6830097
   0.1941974   0.1076663  -0.1074560   0.7099999  -0.1937735  -0.7918492
  -0.1684722   0.0099796  -0.4017527  -0.0540826  -0.0372871  -0.2833841
   0.4106051  -0.1217843  -0.1175890   0.0921467   0.7574849  -0.6356423
   0.2791904  -0.1676719   0.0827569   0.0494955  -0.1557034  -0.3390238
   0.3644217  -1.3244020  -0.5960810   0.3442935  -0.3021149   0.2640201
   0.2374945  -0.7234734   0.5000035   0.0918618   0.6899287   0.5464412
   0.4920582   0.0789796   0.0352314  -0.3226210   0.2420991  -0.7200566
   0.0969447   0.6857788  -0.0268538  -0.2429723   0.0745584   0.2111881
   0.6863271   0.9197588   0.7103598   0.0039458   0.9683883   1.0072737
   0.0067199   0.0588153   0.2549651   0.3411209   0.1106151   0.5283924
   0.2953123   0.0637358  -0.2848055   0.2122102  -0.2482327   0.1509960
   0.2289075  -0.7592880  -0.1929549   0.9896407   0.0540684   0.2331257
  -0.0716998  -0.1642677   0.0277214   1.0698598  -0.9501815   0.4759113
   0.1618865  -0.7724353   1.6607249   0.2688271  -0.0458215   0.2690615
  -0.5919280   0.3811626  -0.8928890   0.2307668   0.5177831   1.2944801
  -0.1640441  -0.0404807  -0.0968506   0.3350850  -0.4784997   0.6057638
  -0.5593886   0.2546271   0.7581400  -0.2553094  -0.1330989  -0.0592469
   1.6372811   0.1504949  -0.6988058  -0.7285465  -0.1262051   0.0304194
  -0.1765582  -0.0326338   0.3353573   0.0209228   1.3009546   1.0849623
  -0.8560544  -0.0958942  -0.0563584   0.2382192  -0.2157667   0.3126643
  -0.3195403  -0.0097190  -0.1838843   0.0650876   0.1830189   0.0531918
  -0.1379424   0.0681523  -0.0408044  -0.0154693   1.4052292   1.3907288
   0.1736400  -0.2995156  -1.4654158  -0.2169259  -0.3103717   0.0965877
  -0.3056544  -0.8550599   0.0525678  -0.2101139   0.5923327   0.2745352
  -0.0536357  -0.3032010   0.2341483   0.2736339   0.2079548   0.1345117
  -0.7489447  -0.4139325   1.0081006   0.3657817   0.1710918  -0.0814302
   0.8781192   0.4748140   0.1395356   0.0708851  -0.2233511  -0.2280609
  -0.0190746  -0.1439206  -0.1818228  -0.1625704   0.4248917   0.4396897
  -0.1107800   0.6484671   0.3933100  -0.0569844  -0.0279249   0.2721132
   0.7626622  -0.3503989  -0.1490187  -0.4729706   0.2427975   0.4301551
  -0.0036711  -0.1241170   0.0554351  -0.0826726  -0.4896993   0.3077004
   0.3158374  -0.8990421   0.8930962  -0.1084653   0.0468701   0.0520007
   0.0106249   0.6324166  -0.3406962  -0.8716737   0.5610070   0.2938130
  -0.1861038   0.1395976   0.3618283   0.6093880  -0.3317596  -0.0049896
  -0.2200214  -0.5689015  -0.0949858  -0.0208420  -0.1549295   0.2286357
  -0.2319321  -0.5887909  -1.6254118  -0.3018158  -0.7582017  -0.1493727
  -0.0768141   0.0368695   0.0839036  -0.4184742   0.1548573   0.3317976
   0.3379700  -0.3058934   0.4336581  -0.0426318   0.0480477   0.1891226
   0.0606762  -0.0756595   0.3410657  -0.0328705  -0.0806765   0.0444492
  -0.0400951   0.2106455   0.1393427  -0.5598076  -0.7502831  -0.2624972
  -0.9434107   0.2557585   0.2985047   0.0740746  -0.1429409   0.0241076
  -0.5387346   0.3613846  -0.6656815  -0.5746577   0.2750778  -0.1555638
   0.0513877  -0.1270920  -0.1482268  -0.4092893   0.4491709   0.0189460
  -0.1754328   0.5835394   0.6142138  -0.1506018  -0.1166308  -0.0656671
   0.7473932   0.4186679  -0.8257675  -0.3264515  -1.2910858  -0.4644691
  -0.0733742   0.2469848   0.1603692  -0.1046313   0.4270244   0.8185802
  -0.5082376   0.4910429  -0.0589824   0.0503148  -0.0544840  -0.1438432
   0.5614633   0.6815400  -0.4305831   0.9847363   0.4094444  -0.0094983
  -0.5712606   0.2796055  -0.1665811   0.3307736   0.5243856   0.5206670
  -1.9324100   0.9461500   0.1461836  -0.2297500   0.1119372   0.2122101
  -0.3671920  -0.8496231   1.4421400  -1.6054508   0.2523760  -0.0569934
   0.0801758  -0.3211869   0.0005108  -0.6033318  -0.1590962  -0.3368028
  -0.4019139  -0.3523013  -0.5664249   0.2078070   0.0989349   0.4504061
  -0.0982497  -0.9317016   0.0043461  -0.5614498  -0.7796935   0.0486456
  -0.2763821   0.0177012  -0.1349616  -0.0915503  -0.5532621   0.6013630
   0.7951210   0.7359263  -0.2900458   0.1434254  -0.2384809   0.1354167
  -0.3693314   0.0343071  -0.1265940   0.2680265   0.0009656  -0.0625023
  -0.0345303  -0.3153479  -0.2134012  -0.1135582  -0.9142551   0.3413832
  -0.3732029  -0.1877208  -0.5357581  -0.2960191   0.1699052  -0.1810449
  -0.1753845   0.2492103  -0.2547555  -0.5219080   1.1402934  -0.5233952
   0.2474988   0.0314572   0.0577500   0.2773263  -0.1998931   0.3128766
  -0.2653454  -0.9699835   1.1679591  -0.0685795   0.0867791   0.2585204
   1.0561164   0.4347517  -0.3751197  -0.7897874   0.9131272   0.3627291
  -0.0884934  -0.0040190  -0.0922389   0.0114818  -0.0207933  -0.1715037
  -0.0709857   0.0435664   1.9876514  -0.4761824  -0.1881926   0.1234767
  -0.5264580  -0.2473406   0.1850945  -0.3246760  -0.2874681   0.5157811
   0.1394376  -0.1415371  -0.1803858  -0.0996527   0.3129541   1.4620902
   0.5056040  -0.4774632  -2.0663879   0.3431073   0.1805861   0.3050539
  -0.2272456   0.5219880   0.8883415   1.1472593  -0.1970156  -0.1575435
  -0.0997762  -0.2815803   0.0813180  -0.2549066   0.3783869   0.4586385
   0.0411145   0.0438709  -0.6825673  -0.0417650  -0.1306391  -0.4074624
  -0.3512709  -0.3240485  -0.1856720  -0.0327621   0.1856217  -0.2137540
   0.3245482   0.0150974   0.2266000  -0.3510717   0.0948709  -0.2468103
   0.7811907  -0.3297662   0.9284486   0.1270896   0.1022672  -0.4434047
  -0.3794395  -0.4179156  -0.5262217  -0.7120252  -1.1521782  -1.2531888
   0.0789552  -0.0723200  -0.1988416  -1.0652380   0.3058656   0.2076400
  -0.5311528  -0.9443307   0.0908294  -0.1583904  -0.2306749   0.0855325
  -0.0988241  -0.2110650   0.2803425   0.1493628   0.7729023  -0.1843269
   0.3613046  -0.2339957  -0.2203761   0.2152570  -0.3813716   0.2546556
   0.0340617  -0.4556606   0.5927639   0.2359459   0.0726891   0.0186741
   0.3870160  -0.1679985  -0.0339457   0.4283564   0.1599665  -0.6735199
  -0.2754026  -0.2837779   0.2168415   0.8000949  -0.5056672  -0.0421328
   0.5918424  -1.2225606  -0.2623512   0.1518551   0.0625211   0.0595177
  -0.0260346   0.4414128   0.5654224   0.4753281   0.3608739  -0.2254772
  -0.1450973  -0.0475197   0.1008653  -0.1051290  -0.3298926   0.2315196
  -0.1791439  -0.6536889  -0.0576067  -0.1096082   0.3265744  -0.2089646
  -0.6805628   0.8979570   0.0518411  -0.3283689   0.2285211  -0.2824842
   0.1453925   0.1890055  -0.0481565   0.4469548  -0.5173466   0.3447637
   0.6442237   0.2782485  -0.8375774  -0.2049697   0.2827174  -0.3973562
   0.6442262  -0.7427532  -0.3560125   0.1020310   0.1791726  -0.3013689
   0.0263485  -0.0037789  -0.0688557   0.0107009   1.0197470   0.5757600
   0.0341649  -0.1198568  -0.0983558  -0.0238770   0.0307196   0.1408290
  -0.5600901  -0.0412749  -0.6166743  -0.2493180  -0.1004987  -2.0294901
   0.2617604   0.1304410  -0.2656239   0.3945766  -0.5364967   0.4725641
  -0.0988567   0.2134038   0.3663479   0.0215935   0.1069183   0.0238298
   0.1612604   0.0907592   0.0534165   0.0398527  -0.5860876   0.0871307
  -0.0744951  -0.2186878  -0.0360213  -0.2313014  -0.2039542  -0.1922586
  -0.1657045  -0.3073741  -0.0942803   0.2077682   0.4438131  -0.0259987
   0.2017346   0.5504213  -0.0533805  -0.2642986  -0.3501817  -0.0901220
  -0.1444400  -0.0714385   0.0140364  -2.1767265   0.7808014   1.0383914
  -0.7973998   0.2003991   0.4115507   0.4464096   0.0692579   0.2415837
   1.0653803   0.5176205  -0.1863343   0.9070698   0.3247699  -0.0648418
  -0.1284112  -0.1869649   0.3865727  -0.6993547   0.4434977  -0.3139269
   0.2479133  -1.0653429  -0.2153477  -0.1757600   0.2493223   0.1950685
  -0.8452515  -0.0761946   0.6639911   0.0540653   0.6248450  -0.5935836
   0.1014170   0.1992851  -0.0054491  -0.8442312   0.3578207   0.2872000
   0.0690188   0.1666517   0.0635647  -0.0337135   0.0471856   0.2196941
  -0.2246602  -0.1364759  -0.1974027  -0.9556765  -0.5731610   0.2150337
   0.1192227   0.3038318  -0.1763890  -0.6229588   0.5703380   0.6313315
  -0.3467343   0.1880268  -0.4079108   0.3109110  -0.1700504   0.2230725
  -0.6273075   0.8067408  -0.5717159  -0.6452795   0.0718134  -0.5188548
  -0.0387125   0.2078419  -0.2273059  -0.8764858   0.3989557  -0.1539340
  -0.2549490   0.3063983  -0.3672458   0.1245048   0.1399458   0.3632148
  -0.0458479  -0.4534825   0.4953857   0.1626842   0.3617645   0.2497806
   0.4029979   0.1564588  -0.0459462   0.3961808  -0.2714664  -0.3243055
  -0.6231204   0.3757449   0.4923967   0.3742008  -0.0860900   0.0756916
   0.4015544  -0.1325089   0.1999228   0.4156235  -0.2712147  -0.2541517
   0.1118813  -0.2682593   0.0319137  -0.4458192   0.3063993  -1.0404865
  -0.1810520   0.2432172   0.6468564  -0.1942138  -0.2587399   0.0318529
   0.6303676   0.1657232   0.2090708   0.0940472  -0.2173232   0.1774754
   0.0120878  -0.0292934  -0.0313103  -0.1320797   0.2867282  -0.3086224
  -0.1796608  -0.5420226   0.4654463  -0.1646465   0.0652110  -0.2132200
  -0.2430092   0.4737127  -0.5975104  -0.4871670   0.2901613  -0.0248374
   0.2840291  -0.0204925  -0.0517720   1.2108717   1.0302952  -0.0940567
   0.7681363   0.3984086  -0.1432898   0.2033403   0.2875627  -0.1624191
  -0.5011943  -0.0144590   0.2843189   0.8275258  -0.2633169  -0.3620921
   0.1679416  -0.0331817  -0.3071572   0.3458588  -0.1128263  -0.0125637
   0.2259226  -0.0672396  -0.2973053   0.1184449   0.1465985  -0.0938747
   0.5219945  -0.8761183   0.7291451  -0.2716508  -0.7731194  -1.8425247
   0.0916078  -0.1018950  -0.1839050  -1.1003877  -0.0115196  -0.5414164
  -0.1921385  -0.0230303  -0.6762522  -0.4222615   0.0176958  -0.1231414
  -0.8067466   1.3272984   0.0899175   0.3877763   0.4538606  -0.9349286
  -0.0094714  -0.2659877   0.0839346  -0.3564233  -0.4390888  -0.5181993
  -0.5502340  -0.3516364   0.6505380  -0.1822950   0.0459316  -0.1903912
   0.2888214   0.0089221  -0.6662007  -0.1258881  -0.0327509  -0.6702174
   0.3784863  -0.0260815  -0.3679347   0.4808576   0.7255810   0.1594250
   0.4296498   0.3319302  -0.1686842  -0.0060187  -0.3138414   0.2605845
  -0.4326639  -0.1403866  -0.0494296   0.0383242   0.6102383  -0.9924377
  -0.1228767  -0.2018448  -0.1850077   0.0429914  -0.2843833   0.1800104
  -0.2117470  -0.0756874  -0.4571797  -0.1477876  -0.0434014   0.0172421
   0.1570733  -0.1761429   0.0019125   1.0032620  -0.5255551  -0.0402788
   0.2908851   0.1151934  -0.0958053   0.4967546   0.3524302  -1.0550383
   0.3427960   0.1850002  -0.3384728  -0.0123711  -0.2332812  -0.1145179
   0.6436841  -0.1770225  -0.1857881   0.0402696  -0.7918857   0.5512313
  -0.2817466   0.2356789  -0.0162170  -0.3142506   0.5826600   0.8090294
  -0.4575909   0.0139165   0.5732736  -0.0974284  -0.0162039  -0.0599577
  -0.7304022  -0.6253275   0.4934494  -0.9262489   0.1015451   1.0783407
   0.0278208   0.3410498  -0.2845613  -0.0308522   0.3408813  -0.2136845
   0.8675749   0.7942779  -0.7001355   0.1269031   0.0409607  -0.2323872
  -0.1409418  -0.3091716  -1.4865225  -0.3276778   0.7207111  -1.5459555
  -0.1837395   0.1707160  -0.0985970  -0.0817839   0.2436376   0.3414927
   0.8765034   0.2776126  -0.7499903   0.0063244  -0.2260362   0.2288981
  -0.5379433  -0.9186221  -0.1069580   0.1390638  -0.5167520  -0.2693811
  -0.1500001   0.0347118   0.2177261  -0.7595191   0.3421779  -0.3684204
   0.1151164  -0.1409272   1.0344977  -0.1146084   0.0915848   0.0140355
  -0.1268593  -0.2774252  -0.7998312  -0.2928224  -0.5545400  -0.1921353
  -0.0265244  -0.0327077  -0.0838309   0.1554704  -0.6809583   0.7553153
   0.4173972   0.8025632  -0.0067464  -0.1379703  -0.0779118  -0.3737039
   0.0749726  -0.0894191   0.2800747   0.7452992   0.4862156  -1.4356656
  -0.1310523  -0.0876122   0.0123269  -0.3331624  -0.0888430  -0.6185105
   1.0513494  -0.1089963   1.3151771  -0.0321359  -0.0114664  -0.0090273
  -0.2821570  -0.1719926  -0.4526465  -0.3503948  -0.6776922  -0.5654859
   0.0015318   0.1698803   0.0665679  -0.3536964  -0.1338210   0.6869322
  -0.9427981  -0.3014167   0.8573606   0.0507008   0.0510948   0.0750581
  -0.0269196   0.7156083   0.2478977   0.4208686  -0.3350112  -0.2674550
  -0.0352509  -0.1518170   0.1948529   0.6392761  -0.0890723   0.2532591
   0.0374182  -0.8321148   0.0470273   0.2303241   0.1606594   0.0942464
   0.3656883   0.3640055   0.5241294   0.5080662   0.4638603   0.9529160
  -0.0656308   0.1129417   0.2603215   0.1735644   0.1517510   0.3314433
  -0.4915814   0.1632487  -0.3469873  -0.0893107  -0.3842343  -0.2318367
  -0.6442897  -0.8172097   0.5915148  -0.4998680  -1.0831088   0.2885851
   0.3704243  -0.1761314  -0.0050054  -0.4348205  -0.0368852   0.5447218
   0.2504773  -0.2405959  -1.1456359   0.1936188   0.3231242   0.0208025
   0.2358231   0.7405431   0.5962340  -0.2362882   0.2221934  -0.0942566
  -0.2261829  -0.4871229  -0.2987826   0.0875481  -0.0412980   0.0358123
  -0.6598030  -0.9595929   0.2679202  -0.0699695  -0.0077614   0.1282076
   0.1497589   1.0695540   0.9574362   0.2471687  -0.2980774   0.1382534
   0.3121614  -0.0524089  -0.1866213  -0.5209779   0.1148004  -0.1884419
   1.0302826   0.0697548   0.2736717  -0.0016499   0.1559758  -0.2992369
  -0.0249456   0.8160202  -0.8335591  -0.0475672   0.0806529  -0.5934543
   0.0993281   0.0362566  -0.0137726  -0.3430670   0.8063559  -0.8115839
  -0.5437858  -1.7175925  -0.0531090   0.1936880  -0.1665451  -0.1910794
  -0.0914800   0.3983158   0.3688565   0.4986209   0.0638313   0.2550591
   0.0772273  -0.3798960  -0.1475654  -0.4750321   0.0092253  -0.0660730
   1.6741961  -0.7986187   0.0056510   0.0391964   0.1567612   0.1886671
   0.3425194   0.1986550  -0.0378547  -0.2938705   0.4146319  -0.0920597
   0.0218163  -0.0008534  -0.0785231  -0.1677829   0.8875926  -0.5971201
  -0.7943383  -0.0793439   0.1735285  -0.0028182   0.4748760  -0.1648153
  -0.6036100  -0.2427224  -1.1087062   0.2392975  -0.9050418  -1.5401556
   0.1856879   0.3479523   0.0166226  -0.5474446   1.6585478  -0.9121766
   0.5311333  -0.3216282   0.3651463   0.1621908   0.0185869   0.0227353
  -0.0229720   0.0026319   0.2400478   0.0957411   0.1843647  -0.1003834
   0.0000807   0.1179036   0.2296589   0.0546989  -0.8754023   0.6834088
  -0.1033944  -0.2520437   0.1863505  -0.2045465   0.0906969   0.1672466
  -0.2261234  -0.2907823  -0.3120567  -0.2436465   0.6758664  -0.0573875
   0.1484436  -0.2937697  -0.3116447  -0.2538688  -0.4940214  -0.8534693
   0.3824831   0.0979536  -0.4083409   0.0738869   0.2292888  -0.0502392
  -0.0100150   0.1234742   0.3699166   0.0069693   0.0857646  -0.4885565
   0.3076691  -0.1001794   0.0167051  -0.1045800  -0.1734091  -0.0053775
  -0.6912383  -0.2170415   0.3475103  -0.0633546   0.2418494  -0.1044097
  -0.4092957   0.0209411  -1.0681294   0.7023327   1.0727299   0.0245917
  -0.1562429  -0.2724095   0.2396766  -0.3314332   0.0823466   0.0080319
  -0.0754036  -0.8027723   0.0714548  -0.0922353   0.2034133   0.3499609
  -0.5123305  -0.6854382   0.9149405   0.9072488  -0.2649097   0.0890142
   0.0274921   0.2411848   0.2953057   0.5691713  -0.1515916   0.7256642
   0.1809173   0.6874253   1.0483953   0.0398844  -0.4362486   0.1170641
   0.2468707  -0.6981836  -0.4003643   0.1414805  -0.6950241   1.0742297
  -0.0385871  -0.0062239  -0.0688796  -0.2234901  -0.2909451   0.1001256
   0.0167645   0.4650954   0.1189145   0.0665026  -0.1111383  -0.0847946
   0.4207769  -0.4094763  -0.1450980   0.0618190   0.0419766  -0.3083741
   0.2259132  -0.1205725  -0.0748475   1.1705516  -0.2587232  -0.1102747
   1.4977076   0.5110141   0.8170216  -0.0924360   0.2215494   0.0071758
  -0.7370210  -0.4260715   0.1863304  -0.3046406   0.9535215   0.7751846
  -0.1464477   0.2081453  -0.0118584   0.0885119  -0.0438378   0.3327960
  -0.5441194   0.0517054  -0.2102812   0.5064825  -0.1960715   0.2501142
  -0.4579940  -0.7832694   0.4882386  -0.2218990  -0.5761600   0.4766552
  -0.0127709   0.1755959  -0.1272590  -0.1767201   0.0351406   1.1123309
  -0.2455197  -0.9649372  -0.6202403  -0.2068392  -0.3145486  -0.1348411
   0.3577598  -0.7788734   0.4815387  -1.1302263   0.2252696  -0.3097230
  -0.1741920   0.4153145  -0.3456085   0.1565805   0.1396646  -0.5259297
  -0.4100941   0.0109019   0.0943801   0.1653336  -0.0381201   0.2259539
   0.9425859   0.1068046   0.9047351  -0.5108599  -0.1296456  -0.5284031
   0.0343127   0.1100985  -0.0262190   0.1059919   0.1591769   0.0552885
   0.1058420   0.2210714   0.0870553   0.1149178   0.0067631  -0.0299432
  -0.2842582  -0.5060646  -0.1123127   0.4667040  -0.3429392   0.0588324
   0.2657854  -0.0628593  -0.2514664  -0.8231777  -0.4179751   0.2931752
   0.2500045   1.0120555  -0.6939249  -0.1300984  -0.0843313  -0.1199192
   0.1946427  -0.7407980  -0.9803501  -0.2591814   0.2320615   0.1073848
  -0.1171114  -0.4041400   0.0432227  -0.3624848  -0.5868876  -0.0791402
  -0.9010957  -0.7970333  -0.8878098   0.0512206  -0.0712817  -0.2761470
  -0.1400215  -0.0754706  -0.2341021   0.1692764  -0.1486820  -0.1165077
   0.0951285  -0.1002202   0.1749129  -0.1903736  -0.6497713   0.6441202
  -0.0778383   0.7966303   0.2331593  -0.2314882   0.0963764   0.0588282
   0.0454813   0.7244961   0.1679516  -0.1164884   0.0855289   0.0356504
   0.0191014   0.0228208  -0.0399378  -0.0004606  -0.2849624  -0.0704917
  -0.2811345  -0.0697128  -0.1715304  -0.0815469  -0.1211357   0.0468421
   0.2661351  -0.0724181  -0.4870215  -0.0557373  -0.2360736   0.7182552
   0.1395624  -0.0365462  -0.4452947  -1.6093963   0.9887664  -1.0916713
  -0.4997508   2.1336433  -0.9501902  -0.4235363  -0.1520020  -0.0068736
   0.0503521  -0.1334535   0.1533357  -0.5164786  -0.2184660   0.3906276
   0.2729432  -0.3583665  -0.0610420   0.5506204   0.1831086   0.5294793
  -0.4129816  -0.6427546   0.1536505   0.3105680  -0.1197613   0.1830483
   0.5674642  -0.6408795   0.9118513   0.1459481   1.3881420   0.0697362
  -0.1199643  -0.2564143  -0.2051081   1.6863044   1.4989964   0.6304447
  -0.1292319   0.6510496   1.3014669   0.0046678  -0.1699138   0.0779984
  -0.0332183  -0.0507462  -0.1556827  -0.3914609   0.1670482   0.1196417
  -0.1628524  -0.0907432  -0.1167218   0.0123355  -0.2320608  -0.4851981
   0.2729339  -0.0097887  -0.1071572  -0.0484342   0.0260856  -0.0696751
  -0.6809187   0.3420315   0.0693161   0.2836410  -0.5290029   0.3872983
  -0.0232516  -0.0187900  -0.0876316  -0.0873546  -0.0395331  -0.1786905
   0.0396868   0.0593612  -0.0984872   0.3776815  -0.1654493  -0.0370289
  -0.0176656  -0.2920139   0.2360266   0.2261098  -0.4181743  -0.5289279
  -0.0826788   0.1610833   0.0384646  -0.7576161  -0.8126660   1.0468415
   0.0737999   0.3764652  -0.1630740  -0.0245009   0.4062721   0.0382575
  -0.0218747   0.0799381   0.1734829   0.0658899  -0.0947296   0.2025568
   0.0247698  -0.1454648   0.1610303  -0.1261273  -0.0036264   0.6280383
   0.4950356  -0.8942368  -1.3219269  -0.3196430  -0.0423817   0.2963198
  -0.1577092  -1.0265687   0.6474734  -0.7243445  -0.0054306   0.1752703
   0.0030965  -0.0307613  -0.0103282  -0.5418892  -0.5705426   0.1597591
   0.3689731  -0.4756425  -0.3657219   0.1900808  -0.2135865   0.1425390
  -0.3505514   0.2711364   0.5254813   0.5132646  -0.0104206  -0.8621635
  -0.2680164  -0.0474514   0.1256778  -0.9501908  -0.5191247   0.3061720
   0.4292248  -0.4248172  -0.0881409   0.0111434   0.0953487  -0.0743043
  -0.2843435   0.5642302   0.1564784  -0.4590760   0.3942402   0.3115455
  -0.0081041   0.1672109   0.3060947   0.0338365  -0.0854700   0.2903339
  -0.5139499  -0.3984775  -0.3494305  -0.0632971   0.0439887  -0.1664211
   0.8508871  -0.4597429   0.9702941   0.1179643  -0.0412630   0.0584275
   0.2017348  -0.2432884  -0.0195739   0.4341005  -0.2234278  -0.1708833
   0.7087365   0.2227886  -0.0304914   0.0505877   0.0197043   0.1736766
   0.5507540   0.5416661  -0.4584203  -0.5918385   1.0868508  -1.5423236
   0.2667253  -0.2282840   0.0876384   0.1152782  -0.0632531   1.4159713
   0.9446575   0.8674404  -0.2248385   0.1428808  -0.1161005   0.3085008
   2.1317963   0.0620559   0.6012097   0.7394894  -0.5729770  -0.2745522
   0.2321552  -0.0680375   0.2041022  -0.0415735   0.4532198  -0.0920880
  -0.7383228   1.5306586  -0.7686875   0.3266891   0.0039749  -0.2866961
   0.3160993  -0.0173605  -0.2503938   0.3524076   0.0437563  -0.5874214
   0.1664049  -0.1146450   0.3003199   0.3519911  -0.0694646   0.0095237
  -0.4622143  -0.0250851   0.7784490   0.2206388   0.0110909   0.1711847
   0.4777698  -0.3742895  -0.3726092   0.5040559  -0.3015062   0.7010206
  -0.0243444  -0.1990175  -0.0598395  -0.0270428   0.2094476   0.4691038
  -0.4655118   0.2958359  -0.4180486   0.3141253   0.0247254  -0.0543351
   0.4867840   0.4055668  -0.7733799   0.0487550  -0.6636867  -0.1565014
   0.2747271  -0.0154420   0.0944714   0.0499928   0.0692960   0.0126197
   0.3257921  -0.1861397   0.2760445   0.2662786  -0.0542395   0.0989301
   0.1779669   0.5780636  -1.2703533  -0.1363469  -0.1825203   1.0838523
   0.2824680  -0.0144183   0.3862744  -0.3469512   0.2580684   0.0752226
   0.3014421  -0.4962106  -0.2055244  -0.1305219   0.0625851  -0.0413398
   0.4535943   0.0466974  -0.0844700  -0.4909660  -0.1932154   0.1846869
  -0.0144204   0.0492077  -0.2099601  -1.0880095   0.2235226   1.3172910
  -0.8142499  -0.0818480  -0.7066888  -0.1034095  -0.0828309  -0.0321870
  -0.0591772   0.8222524   0.2344519  -0.1342101  -0.1603589  -0.9181590
   0.2072627  -0.3563935  -0.2820977   1.2725324   0.7235217  -0.1362641
   0.0901543  -0.2596276   0.3277620   0.1238463   0.0311232  -0.1876788
   0.0862748   0.0433217  -0.1690882   0.1644929  -0.3975130  -0.1302419
  -0.0201453   0.1845099   0.1378288  -0.1875214  -0.3261936  -0.2966062
  -0.1293813   0.3832255   0.1439367  -0.1855783   0.1939637   0.1947338
  -1.1062674  -1.1196793  -0.7705955   0.0127295  -0.6033162  -0.1303923
   0.0139323  -0.0376578  -0.1956627  -0.6103877  -0.4882043  -0.0527385
   0.4243851   0.9115105  -0.1834647  -0.0198359   0.1130820  -0.1327878
  -0.0765237   0.4499817  -0.1783686   0.2015719   0.5174850   0.0198499
  -0.1686064   0.1053000   0.5674541  -0.1903515   0.3627217  -0.3979089
  -0.7091575   0.1826252  -0.1254192  -0.0044597  -0.2010899  -0.3525669
  -0.1605462   0.2288562  -1.3186656  -0.0123746  -0.9410864  -0.2179560
   0.1924054   0.1067534   0.1097026  -0.2434162   0.0357032   1.1375745
   1.3309277   0.4775019  -1.2576303   0.3404251   0.0898555   0.3372160
   0.1671847  -0.3317328   0.0914601  -0.2130252   0.4115183   0.4387010
   0.2474261  -0.3494431  -0.2588699  -1.4323154  -0.3373091   1.7003890
   0.4319710  -0.5941429  -1.1943397   0.0050739  -0.1310530  -0.3035492
   0.0410538   0.6732841  -0.7254823   0.2121360  -0.3216405  -0.3258160
   0.0603345  -0.2579919   0.4051337  -0.0085100  -0.9289699   0.2943796
   0.3511038  -0.5426307  -0.1291700   0.0159930  -0.2397813  -0.2082464
   0.6411750   0.1512585  -0.4939518  -0.1863591   0.3238847  -0.1417141
  -0.1754317   0.2158750   0.1115612  -0.3815803   0.4757058   0.1933034
  -0.4888669  -0.3460301   0.1038934  -0.1450636  -0.0110516   0.1363080
  -0.1980082   0.2307880   0.6726175   1.1669734   0.8426093  -0.9420456
   0.1995288  -0.1918715   0.0453150   0.3983947  -0.0505718   0.1642492
  -0.2164434  -0.2780552   0.4209945  -0.2206301   0.0905445   0.1964147
   0.3755871  -0.4311393  -0.6637638   0.5702668   0.8273242   0.4334318
   0.0666104   0.0616090  -0.2920230   0.0892996  -0.6247611  -0.0924906
  -0.0996380  -0.0145876  -0.3593052   0.0332416   0.0391160  -0.4629763
   0.4140363  -0.1289524   0.9139774  -0.3267198  -0.5850262  -0.3571795
  -0.2414606  -0.1983739   0.2098099  -0.3903291  -0.2014946   0.4232410
  -0.2772852  -0.4878150  -0.2963858   0.1963500   0.2657266  -0.1683335
   0.9049353  -0.2426665  -1.1576304   0.0215517  -0.0327491  -0.0091948
  -0.0701106  -0.1057455   0.0666296   0.3402493   0.2145672   0.4001650
  -0.6896785   0.5008675   0.0610851   0.2202632  -0.0161604   0.2481742
   0.5499812  -0.2839424   0.2218482   0.3192944  -0.3535602  -0.5766512
  -0.0167018  -0.0314885  -0.1374896  -0.0798810   0.6406941   0.1605899
  -0.7735355  -0.4986800  -0.5833898   0.0811761  -0.0100867  -0.0958363
   0.3110980   0.0623641   0.0077362   0.0449454  -0.1631043  -0.1715592
  -0.2592120  -0.0419491  -0.0056891  -0.2670862   0.0757722  -0.4033217
   0.0162948   0.0606072   0.3993712   0.1548038  -0.0379133   0.3012353
  -0.0848994   0.4571874   0.6638278   0.0319693   0.1667898  -0.1984970
   0.0099184  -0.1157217  -0.1324504  -0.2620356  -0.3825156   0.0411141
  -0.4729009  -0.4944335  -0.4116935  -0.2144495   0.2246297  -0.1484401
  -1.3900004   0.7952528   1.0184390   0.9524544   0.8834321   0.0190350
  -0.1842898   0.0234796   0.1903428   0.5125252  -0.2711863   0.7018771
  -0.8902700  -0.5244221   0.2185665   0.0596475   0.1635468  -0.2298851
  -0.0345958  -0.3957270  -0.8462684   0.6088640   0.6093788  -0.8436440
  -0.0879077  -0.2181331  -0.0326615  -0.6101882   0.0470553  -0.4558081
  -0.2345863  -0.9200059   0.0239224   0.0693392  -0.1889589   0.0165688
  -0.5800129  -0.6837706   0.7757685  -0.0163527   0.7397404   0.6388390
   0.0851148   0.0495540  -0.3887347  -0.2071526   0.4979422  -0.6235161
  -0.7043641   0.7498966  -1.0936365  -0.1557151   0.2270469   0.0587803
  -0.0502556   0.1120585   0.1625338   0.5075774   0.0997001  -0.0190207
  -0.0945362   0.2493918   0.2262986  -0.5658348  -0.1753877   1.0145238
  -0.9609183  -0.3084587  -0.6240852   0.1634498   0.2129734   0.3426278
   0.3795423  -0.0373846   0.0033557   1.1034570  -0.0865631   0.1910863
   0.3736829   0.2028247   0.0648664   0.0243232  -0.2640253   0.7794611
   1.1981024   0.1442736  -0.1924396   0.1643588  -0.0780240  -0.0791575
   0.2734637   0.1747827  -0.7391493   1.0825058   0.2484893  -0.6373092
  -0.1372629  -0.0158825  -0.0031670   1.2352361   0.7375724   0.6245539
   0.2040519   0.9418263  -0.7095754  -0.0156713  -0.1593629   0.4284745
   0.3924284   0.2043484   0.3284121  -0.4274776   0.1040706   0.8137045
   0.0500493  -0.0560749  -0.2699527   0.1522039  -0.2613095   0.0410687
   0.2416120  -0.1517502  -0.6315819  -0.0400692  -0.0057534   0.1669513
  -1.1247766  -1.2616048  -0.2963566   0.6201761   0.7183224   0.4247063
   0.0244088   0.3468213   0.2135401  -0.0388713   0.1873156  -0.1601044
   0.0068124   0.7355697   0.7934856  -0.0887509   0.2645796  -0.2014663
  -0.3450574   0.4427579  -0.1937669   0.3533912  -0.0377009  -0.2476220
  -0.0239880  -0.1353045  -0.2255814  -0.3801864   0.8053234  -0.3247945
   0.3193521  -0.7158167  -0.2095123   0.0458740   0.1302810  -0.1675295
  -0.0679645   0.6067424  -0.4389420  -0.0059823  -0.9720546  -0.5727281
  -0.1018170  -0.1768300  -0.2006090  -0.2476371  -0.3385881  -1.0712074
  -0.8881923  -0.1676413  -0.8362770   0.2916404   0.0357395   0.2539541
  -0.2522902  -0.1159638  -0.0271225   0.6446486  -0.2409148  -0.2006157
   0.1569870   0.1021352   0.0691613   0.4653471   0.5341471  -0.6085272
   0.3960488  -0.2311993   0.4922845   0.1733465   0.2648413  -0.1619246
  -0.3044526   0.5529657  -1.3643461   0.7041518  -0.2695816   0.2250221
  -0.1686757   0.0798665   0.1372084  -0.0193445  -1.7424938  -0.0040681
  -1.5712413  -0.9082619  -0.2395022   0.1229136  -0.0114375  -0.2256745
   0.9420553   1.2442373   0.1514653  -1.1824164  -0.3296137   0.7760213
   0.0229279  -0.3373241  -0.2214475   0.2318269  -1.6903767   0.4737489
  -0.2191703   1.6789245  -0.4232124   0.0280954  -0.1396567   0.3944681
   0.3920860  -0.0109858   0.8264438  -0.0172501  -0.2241926   0.4891064
  -0.1556783   0.3068240  -0.1822905   0.1081970  -0.0336414  -0.9611896
   0.1553279   0.7774518   0.7572554  -0.1431091  -0.0657842  -0.2057377
  -0.1415979  -0.5616163   0.8700855   0.9072571   0.1574454  -0.9286233
  -0.0517091   0.0629259   0.1805279   0.1602045  -0.2146945   0.6890329
  -0.1249858   0.2725176  -0.1790335  -0.1617868   0.4961951   0.0570088
   0.2361383   1.1118981  -0.3105236  -0.6117417  -0.0124374  -0.5694294
  -0.0519507   0.1324813  -0.1254052   0.1393135   0.3587099  -0.3133253
  -0.3529733   0.2931045  -0.0493497   0.2876810   0.0768912   0.2783965
   0.1981553   0.2200727   0.2484002   0.5170383   0.1730287   0.5272809
   0.0195361   0.2782796   0.0015078  -1.0599241   0.3888006   0.0913150
   0.5937253   0.8924706  -0.5973469   0.0948556   0.1789482   0.1246969
   0.2673609   0.4926599   0.4840765   0.4136356   0.9071090  -0.3217999
  -0.0183625  -0.1693678   0.0099365  -0.2118104  -0.2698403   0.2111828
   0.0797586   0.0094824  -0.2669271   0.2026160   0.0782997  -0.0220578
   0.5276361  -0.1921877  -0.2597414  -0.0886712  -0.2804731   0.0628288
  -0.1022967  -0.0058348  -0.2623004   0.5937453  -0.0810245   1.2039475
  -0.4718746  -0.1617746  -0.9590728   0.0218521  -0.0840090  -0.1594329
  -0.1400251  -0.1411331   0.0523757  -0.5630921   0.3423982   0.5750526
   0.0910583  -0.0007185  -0.0860407   0.0010255   0.0011850  -0.0625693
   0.2955920   0.2412262  -0.9400516  -0.1009738  -0.1479108  -0.0410553
   0.7992546  -0.2758456   1.1315106   0.2620552   0.6233382   0.0554421
  -0.0033573   0.1470058   0.2710303  -0.3788425  -0.0004573   0.2928791
   0.0049591  -0.9912087   2.1719723  -0.3567484   0.0099568   0.1387066
  -0.1124923  -0.3163573   1.1416090   0.3058963   0.1084896   0.2644327
  -0.0447219   0.0608442  -0.2381134  -0.1564979  -0.1325148   0.2406447
   0.1002180   0.2303122  -0.2423159  -0.0922734   0.0560465  -0.2292311
   0.8820375   0.5953996  -0.5511978  -0.2699589   0.1333788  -0.6293002
   0.0657311  -0.1503086   0.0883007   0.3241528  -0.6241214  -0.4639481
   0.0889667  -0.2025742  -0.0790590   0.3408136  -0.0699156   0.1067360
  -0.4471431   0.4721684   0.5561811   0.9329648  -0.6196192  -0.3615414
  -0.1252801   0.3834711  -0.2656834   0.2965446   0.2420031  -0.3713284
  -0.0633068   0.6611652  -0.0623767   0.1829415   0.0693875   0.2837293
   0.4998058   0.4564664   0.1691553  -1.0433712   0.6629462   0.1946564
  -0.1656628   0.1750299   0.0687381   0.0156028   0.1619719  -0.1496502
  -0.5481887   0.0578429   0.3292341   0.0603540  -0.0052865  -0.0019942
   0.9565103   0.0995722   0.5027075  -0.3116006  -0.4397845  -0.1018293
  -0.1149448  -0.0670792   0.0758974   0.5199005  -0.0846808   0.6570848
   0.1065877  -0.7022024  -0.5626642   0.2673748   0.0359229   0.0094670
  -0.7219353   0.4622725   0.1734693   0.0879295   0.7535043  -0.2910009
  -0.0143162   0.0932949   0.3573472   0.3210540  -0.0902492  -0.4566909
  -0.8499194   0.6116057   0.0868072   0.0095790   0.0441007   0.0349637
   0.3358045  -0.3121152  -0.4228763   0.2719569   0.1722225   0.0696644
   0.1233105   0.1320015   0.2311378  -0.4652446   0.2791432  -0.1457576
   0.0940456   0.1437404   0.1863256   0.0334410   0.1890884  -0.0816528
   0.2729005  -0.7855690   0.3056066   0.2240143   0.9161085  -0.6227885
   0.0496019  -0.0317265  -0.5107509   1.0090128  -0.8947714   0.5230941
   0.5282093  -0.2192846  -0.3522175   0.0492491  -0.2544659  -0.1388129
   0.1832386  -0.0025052  -0.5684146  -0.1096026  -0.1322156   0.7317982
   0.0822674  -0.0407970  -0.2125642  -0.5849485  -0.4644986   0.0753396
  -0.0517620   0.1329985  -0.4436090   0.0508257  -0.3376570   0.3060744
  -0.1419936   0.3255093  -0.6567632  -0.5531385   0.2075886   0.9499126
   0.2043592  -0.1715605   0.1572171   0.3131999   0.3329686   0.7428006
  -0.8983964  -0.2034191  -0.4362366  -0.1653357  -0.4756452   0.0022233
  -0.0606631  -1.1793475   0.2628445  -0.8945263  -0.1769248  -0.3881292
  -0.1344963  -0.0618881   0.2125283  -0.6622022  -0.0507631   0.4757851
   0.9223203   0.4114037   0.3894183  -0.3140131  -0.0636573  -0.0066998
  -0.4629336  -0.3057613  -0.2640889  -0.6210594  -0.1450497   0.4600525
   0.1180363  -0.1375976   0.3580712   0.4562564  -0.1019814   0.0908068
  -0.2019547  -0.2435260   0.1102407  -0.2597511  -0.0505641  -0.1186937
  -0.4227855   1.0123339   0.4237524  -0.6070266   0.0081008  -1.0402605
  -0.2157958  -0.1222927  -0.0439185  -0.0908381  -0.6145680   0.3047146
   0.0125402   0.3845521   0.2897620  -0.0085020   0.0354372  -0.2842225
   0.3602884   0.6968478   1.3189951  -0.1737465  -0.6562394  -1.3288304
  -0.0440325   0.0137376   0.0765231  -0.5160680  -0.8534625  -0.5845735
   0.1754890   0.3557229   0.1846774   0.0512751  -0.2751886  -0.0301824
  -0.8324280  -1.2461995   1.1927033   0.1121530  -0.3681117   0.1478523
   0.4184303   0.4047043   0.0667246  -0.0195853   0.0282691   0.2186234
  -0.1799248   0.1773307   0.4261343   0.2887149  -0.0540734  -0.0420120
   0.0463858   0.3371503   0.0305940   0.9271181   0.7429387   0.2189694
  -0.0365367   0.1113416  -0.3054600  -0.1398773  -0.0037264   0.4929217
  -0.2920060   0.5437991  -0.3039113   0.1487019  -0.0657093   0.1725387
   0.9975994  -0.2253651   0.6065970  -0.2046499  -1.1034325   0.2214346
  -0.1881967  -0.0144909   0.0710967  -0.0927762   0.0785464   0.1649603
  -0.7805960   0.0283955  -0.0589511  -0.2779792   0.2239165  -0.0920540
  -0.4917834   0.0884316   0.0388343  -0.1482272   0.3000780  -0.1418480
   0.2834899   0.2066465   0.3077144  -0.1700665  -0.1956841   0.1906311
   0.1212669   0.9357657   0.3674330   0.0321579   0.0107567   0.0427359
   0.2558539  -0.0045341  -0.7183812  -0.3185901   0.4163294   0.1332644
  -0.2445801   0.0056492  -0.0126762   0.1319608   0.4684842  -0.0824629
   0.3716537   0.6518293  -0.1849611  -0.0949171  -0.4098741   0.1444040
   0.1010402  -0.3539403   0.6622289  -0.3954633  -0.5225657  -0.0453667
  -0.3614214  -0.1112424  -0.1022512  -0.7152183  -0.1620364   0.3806439
   0.1852618   0.0281003   0.1639155  -0.0854032  -0.2192864  -0.1232883
   0.8264033   0.3682551   0.2716480   0.1116131   0.6703052  -0.1906762
   0.0002525   0.0110006  -0.1220595  -0.2789154  -0.7378412  -0.4233703
   0.0357078   0.1572252  -0.2037112  -0.0144334  -0.1686917  -0.0652547
  -0.5047999   0.6595546  -1.0190571   0.2929640  -0.7600239   0.7002026
  -0.0456385  -0.1271784  -0.0883086   0.2755189  -1.1145930   0.0175525
  -0.2220779   1.2469330  -0.4624719   0.1063051  -0.0252162   0.1214163
   0.7678107  -0.3305133   0.5562398   0.2146461  -0.2493130  -0.3449975
   0.2450716   0.1300245  -0.2638370  -0.1214151  -0.6650828  -0.5356292
   0.6862981   0.4117486   0.4710460  -0.0675494  -0.3606200   0.0003943
   0.5205507  -0.7766826  -1.5021594   0.0914929   0.2549409   0.6571606
  -0.1008572  -0.0548631   0.0942510  -0.0661961  -0.0105673  -0.2834694
  -0.1717298  -1.1608865   0.6801036   0.0707158   0.2127170   0.1137946
   0.5592362   0.0398147   0.0075591   0.0233589   0.5389368   0.4157328
  -0.0857369   0.0156489   0.1000371  -0.7687907  -1.1797988   0.3804675
   0.4566139  -0.8375542  -0.8280889   0.3696266   0.1416803   0.2981395
   0.3813177   0.0668318   0.3377154  -0.0186670   0.3530013   0.0915661
   0.0104497  -0.2018045  -0.2558561   0.2849793   0.4857287   0.6920984
   0.6372096   1.1278139  -0.2233414   0.1617471  -0.2191476   0.1134985
  -0.1245550  -0.4729764   0.7076070   0.0751648   0.4729805   0.1314688
   0.0473457  -0.2627335   0.0278627   0.1232301  -0.5028780   0.0180714
   0.2138593  -0.0625070   0.0444058   0.0860593   0.2406851   0.0073630
  -0.3335777  -0.2208580   0.6368338  -0.6389373  -0.0557146   0.0791044
  -0.3578507   0.0336269   0.3110881   0.0001659   0.1173309   0.2602059
  -0.4313557   0.0459390   0.3018093  -0.0664210  -0.1568343  -0.1669971
  -0.0823455  -0.4515331   0.3412914  -1.4954728   0.6220809   0.7891737
  -0.4886746   0.0096990   0.0082583  -0.5325941  -0.7819720   0.9038996
  -0.1496378   1.1136959   0.1404952   0.0888572   0.2706630   0.1758936
   0.9080193  -0.2165634  -0.1088779  -0.1054300  -0.2760711  -0.2504697
   0.2677890   0.0584439  -0.1065301  -0.0748861   0.3328625   0.0170025
  -0.6835988   1.0769533   0.1865818   0.4247619   0.4190934  -0.0500094
   1.0780792   0.7006362   0.4445128   0.1075164  -0.2060306  -0.4318997
   0.1832367  -0.1036641   0.0851747   0.8874796   0.7259335  -0.4617131
   0.6838139  -1.2528706  -0.4022198  -0.1726714   0.1904712  -0.0410118
  -0.5328710   0.3002850   0.9963083  -0.2144507   1.2264643  -0.5296244
  -0.2183837   0.1520782   0.3987647  -0.5429109  -0.2962229   1.6881456
  -0.1439616   0.5651368  -0.2487486  -0.1195489  -0.0449585  -0.4197717
   0.4555353   1.0954781  -0.3748922  -0.8504895   0.6474527  -0.8857627
  -0.0322956   0.1143389   0.3349713  -0.0653174  -0.2167295  -0.7769099
   0.1839836   0.2394022   1.0293862   0.2056769  -0.1267105  -0.2276226
  -0.0840547   0.4705494  -0.4131752   0.8385239  -0.0884404  -0.4727325
   0.0767025  -0.0847000  -0.1348433   0.0634047  -0.1325449  -0.1358058
   0.0809631  -0.1120569  -0.1725625   0.2472080   0.0554157  -0.1678228
  -0.0323644  -0.1067801   0.0673881   0.0593496   0.4897049  -0.2390596
  -0.0876562  -0.0894547  -0.1018430   0.0601213   0.1883682   0.2050767
  -0.6535528  -0.6349717   0.3765288  -0.1476771  -0.1100604  -0.2768089
  -0.5567899  -0.2735949  -0.2637452   0.5772386   0.0666442  -0.0910351
  -0.0033635   0.0250517   0.1067543  -0.2314587   0.0503826   0.3319212
  -0.0240467   0.0800131   0.3134213  -0.2617134  -0.1162398   0.1765786
   0.4835989   0.1870355   0.3561461   0.7126124   0.2584499   0.4139413
  -0.0119172  -0.0662637  -0.0290338  -0.4741880   0.9406728   0.0873173
   0.0990101  -0.1262647  -0.0695503  -0.1215432  -0.0963112   0.2309080
   0.3887401  -0.4029857   0.1804819  -0.3157678   0.2579697  -0.1729638
   0.0104661   0.2852071   0.0303198   0.9309421  -0.0863645   0.1170874
  -0.9984425   1.2066655  -0.3698354  -0.0188440   0.4809545  -0.1370788
   0.9230126  -1.6559073  -0.5948220   0.1534979  -0.5797582  -0.5142200
  -0.0036264  -0.2678893  -0.0811641   0.6603252  -1.4174972   0.3732337
  -0.4211664   0.9356097   1.4526198  -0.0460140  -0.1286290   0.1708146
  -0.0326370  -0.0153468  -0.0296727   0.7764767  -1.1270711   0.9545927
  -0.1873279   0.0161382   0.1880360  -0.3160367  -0.3825493  -0.0194085
  -0.2709216   0.5929889   0.5751354  -0.0017770  -0.1831241   0.0635651
  -0.2342621   1.4311336   1.1781423   0.4355768  -0.2384728  -0.3615322
  -0.4666674  -0.1576671  -0.1727480   0.9815021  -0.6270044   0.9104949
   1.0513575   0.1070738  -0.4756649  -0.1024542   0.0167665   0.0607719
   0.1642454  -0.2405788   0.1486046   0.6882776   0.0643640  -0.1039849
  -0.1674392   0.2102354   0.0179495   0.7023933   0.3582232   0.3323360
   0.0933686  -0.0412945   0.0412509   0.2453105  -0.1468797  -0.1775244
   0.1634975   0.0959389   0.0225083  -0.4715107  -0.0038782  -1.0948838
  -0.0756535   0.3238768   0.0094919   0.3032968   0.1794634  -0.2901199
   1.2325948   0.3356054   0.2172314  -0.3854693   0.0993074   0.2841886
  -0.8708099   0.0262859   1.3939972  -0.5353107   0.6831982   1.0463066
  -0.0532013   0.1072973   0.0766909  -0.0752355   0.1957759  -0.1238421
  -0.0156131   1.0916133   0.3380364  -0.2353819   0.0232828   0.7788583
   0.2416269   0.2209386   0.7921113  -0.1630582  -0.4403608   0.4407935
   0.1141005   0.1694144  -0.0365347   0.0607775  -0.2254075  -0.2344226
  -0.5992846  -0.4365637  -0.1493019  -0.3320946   0.3272832   0.0087355
  -0.0536735   0.2617178   0.3871469   0.2670129   0.2026232   0.7940087
  -0.3211872   0.0027531  -0.0154317  -0.1422139   0.7096984   0.1943777
  -0.3615313  -0.2433697   0.6925535   0.0320379  -0.3067523  -0.0344170
   0.0752974  -0.0294336   0.2452825   0.0815453  -0.6787930  -0.1278286
  -0.2224034   0.0539495  -0.0397745  -0.7915848  -0.0389273   0.0651029
   0.2936079   0.2284298  -0.1016526   0.0331652   0.1828374  -0.3517285
   0.5361303   0.2572356   0.6568669  -0.4466309   0.0208213  -1.0239731
   0.1641506   0.2674800  -0.0246425  -0.0507434   0.4046569   0.1486295
   0.3514201   0.2072224  -0.1015586  -0.1307751  -0.1598614  -0.1123061
   0.3589525  -0.7047726  -0.6614257  -1.0000251   0.2043157   0.4513599
   0.0971908   0.1215152   0.2276174   0.0576472   0.8735149  -0.3837330
   0.1244281   0.8353248   1.6021767  -0.3291234   0.2528406   0.0758859
   0.2705985  -0.4526629  -0.3450028  -1.2039762  -0.0181251  -0.3143632
  -0.0092425  -0.3472188   0.0108043  -0.2233777   0.8053721  -0.2015374
   0.6948097   0.0912912  -0.3206737  -0.1094344   0.0949691   0.0770913
  -1.2175469   0.9455030   0.7198965  -0.0039696   0.2826538   0.2686389
  -0.0967491  -0.1447366   0.0645295  -0.2647758   0.2492631  -0.0382414
   0.3274885  -0.0567137   0.5419950   0.2769246  -0.1529586  -0.0560840
  -0.4401792   0.0042326  -0.7784208   0.1886458  -0.1609854  -0.1076799
  -0.0108786  -0.0276563   0.1708281   0.3053242   0.7739565   0.0691299
  -0.8855560   0.1566894  -0.1144554   0.0124497  -0.1131658   0.0305282
  -0.0460066   0.5326203   0.0988581  -0.5074821  -0.1086307  -0.1460021
  -0.0216333  -0.0689069   0.1592454  -1.2757072  -0.2579397   0.6077039
  -0.6786288  -1.4086175  -0.9341902  -0.0496745   0.2272803  -0.0948147
   0.0818278   0.0220712  -1.0439431   0.4856455   0.8226708   0.7330822
  -0.1147655  -0.1408320  -0.0464840  -0.2632677  -0.3501678  -0.4332585
   0.1253989  -0.4698028  -0.7625957   0.0006801   0.2128991   0.2745418
   0.2945299   0.2310927  -0.4340160   0.2865254   0.3427273  -0.1930866
  -0.0104300  -0.1114877   0.3445142   0.3858251  -0.7624210  -0.4132159
  -0.6808253   0.5752613   0.2166402  -0.0781619  -0.1469604  -0.0420228
   0.0248839  -0.1138223   0.0982551  -0.0033083   0.1037730  -0.2911834
   0.1249312   0.1411841   0.1148050  -0.2684144   0.5607460  -0.4429634
   0.8875967  -0.5497334   0.8042495  -0.1327859   0.1969137  -0.0234145
   0.3053621  -0.0166529  -0.0784689  -1.4199935  -0.3446447  -0.0273895
  -0.0087808   0.2728889   0.0807562  -0.4855086   0.8585908  -0.0517115
  -0.3006799   0.6610369  -0.2129052  -0.0781124  -0.2754220  -0.0076229
  -0.5639708  -0.1440295   0.5414227   0.2099910  -0.2685312   0.2464572
   0.3032637   0.2583751   0.1912468   0.0896026  -1.3520830   0.3287448
  -0.4976976   0.6113787   0.2715793  -0.1034635  -0.0325902  -0.1580841
   0.9285454   1.3832601   0.0985206  -0.0561902  -1.3448733   0.2407933
  -0.0289691   0.1348685   0.1566509  -0.1879355  -0.6288252  -0.4985275
  -0.2759505  -0.5514978  -0.6009214   0.0182692  -0.0007428  -0.0909313
   0.1688241  -0.3392447   0.2252220  -0.2950956  -0.3994740  -0.6233626
  -0.3328783  -0.1179592   0.0482271  -0.0143591  -0.6991110   0.6237788
  -0.2164495   0.3969097  -0.6988158  -0.0706063   0.2126176   0.1437204
  -0.0894085   0.0705533   0.3239510  -0.2967543   0.1000582   0.2319108
  -0.0167682   0.1027677  -0.3208885  -0.3046172   0.1491807   0.1267533
  -0.3238452   0.0090920  -0.8042618   0.0740519  -0.0466862   0.2309872
   1.0681853  -1.0609222  -0.3199216  -0.2895057   0.4878668   0.0602287
  -0.1360908   0.0520698  -0.4192106   0.0912747  -0.1406502  -0.7370073
  -0.4953409  -1.0977836  -0.9583204   0.1538626   0.0022796  -0.0203550
   0.2155432   0.0623392  -0.0832572  -0.3426999  -0.2613480   0.3142343
   0.0438945   0.0554356  -0.0213829   0.0234656   0.0592103   0.2268105
  -0.0998092   0.0152105  -0.3203181   0.1173953   0.3542589  -0.1732082
  -0.5360087  -0.1066551  -0.0515881   0.5454963   0.9050856  -0.7651835
   0.2355756  -0.0127481  -0.2459328  -0.3701207  -0.5072562   0.0512061
  -0.1494827  -0.0502328  -0.3129024   0.0267629  -0.2011872   0.2171340
   0.1325199  -0.0200383   0.3889471  -0.4409934  -0.4477851  -0.4625420
  -0.1079218  -0.0697348  -0.1206734  -0.2133163  -0.6306224  -1.0798080
  -0.9720882   0.5614680  -0.3989649   0.1427638   0.1199557  -0.1675777
   0.4180453  -0.0744057   0.2384254   1.1716935  -0.1613210  -0.3187914
  -0.1136839  -0.1828012  -0.0942425  -0.4963713  -0.2675490   0.2165381
  -0.1062141   0.0606467   0.0112727   0.1175981   0.0846215  -0.0237978
   0.0752209   0.7193791   0.5267161   0.8764331  -0.5105464   0.5039813
  -0.2582437  -0.0356413  -0.1132538  -0.1318447   0.6070017  -0.4567276
  -0.1471260   0.4373452  -0.3635343   0.1680016  -0.0142744   0.1899426
   0.2935282   0.0468140   0.3758967   0.2102672  -0.1598692   0.0044916
   0.1191284  -0.0721847  -0.1345259  -0.4764282   0.2879635  -0.0090565
  -0.0771650  -0.5518601  -0.5644852   0.0087130   0.0101832  -0.1851672
  -0.4800672   0.0530831  -0.7025575   0.6671488   0.1883421   0.6424002
   0.1230610   0.1827868  -0.0995813   0.1782662   1.0111081  -0.2704507
   0.1236581   0.6176570  -0.1900316  -0.0910186   0.1012432   0.3139552
  -0.7785546   0.2869116  -0.0254845  -0.6015981  -0.3360134   0.5315887
  -0.1184149   0.1939197   0.2210908  -0.0881626   0.3220767   0.1590066
  -0.0371920   0.3479679   0.1898307  -0.0406246  -0.1628511   0.0023839
   0.9803011   0.8275184   0.3078734   0.0748793   0.0549901  -0.0002331
  -0.0272053   0.5710965   0.7448954  -0.4163303   0.9690844   0.3935053
  -1.0464111   0.1406771   1.3049957  -0.3665213   0.1347882   0.3706855
  -0.4455337  -0.1955716   0.5771540   0.6175604   0.4479764  -0.3064716
   0.1296133   0.1286845   0.2255752  -0.3595533   0.8788714   0.0968357
   0.3801756  -0.5857096   0.4142019  -0.1863935  -0.0299141   0.0117612
  -0.2316343   0.3889506   0.1897241  -0.2629740  -1.2185310   0.1377311
   0.1553216   0.3591249  -0.2604754  -1.1158468   0.5018554  -0.9867249
  -0.5552211  -1.0534316   0.2198634   0.2378686   0.2575454   0.2364399
   0.0474481   0.4883938   0.7579471   0.3895663   0.7899201  -0.2737001
  -0.1410020   0.1180234   0.1821759   0.0702305  -0.0973328   0.2285289
  -0.1671701   0.1702452   0.2583919  -0.0958057  -0.1731953   0.1479963
   0.0042296   0.1801188   0.7261961   0.0021135  -0.0235732  -0.2348962
  -0.0511187   0.1641093  -0.1944571   0.8484370   0.7295955   0.5007873
  -1.0398426   1.0940593  -0.9673914  -0.0509206   0.2948544  -0.2251528
   0.0473625   1.0553792  -0.5372433   0.2242737   0.2031763   0.4677747
  -0.0865969  -0.2059333  -0.0065094  -0.1161859   0.0027012   0.5573407
   0.3348579  -0.2399096   0.8858435  -0.3788661   0.0313902   0.0407805
  -0.4268670  -0.1646210   0.6430316   2.0344893  -0.6313037   0.4265610
  -0.0446500   0.0649311  -0.1600604  -0.0728510  -0.3975133   0.7076158
  -0.8225068   0.3242190  -0.2544071  -0.1299546   0.0760779  -0.3090249
  -0.1098956  -0.0624351  -0.3526585  -0.5320586   0.5942648   0.0142759
  -0.1605152  -0.1853663   0.1366681  -0.4840060  -0.2376834   0.2254164
   0.3171325  -0.8542579   0.3916645   0.0082744  -0.1197223  -0.0345947
  -0.5779054  -0.3432670  -0.8687055   0.7685960   0.4808815  -0.4963189
   0.2245025  -0.1507881  -0.2555193   0.1894630  -1.0293275   0.0427578
  -0.2763145   0.0674549  -0.2020585  -0.0465524   0.0589057  -0.2127387
   0.0545404  -1.3332343  -0.3844185  -1.2932505   0.2312009   0.4321785
   0.1704108  -0.1120909  -0.0601113   1.1231154  -0.8467399  -0.4533108
   0.3031857   0.8765117  -0.9087065  -0.0192606  -0.0041231   0.2151858
   0.0611156  -0.2918594  -0.1411895   0.2369362   0.2781686   0.0183039
  -0.1669347  -0.0953404   0.0135601   0.0382048  -1.2721577   0.8628133
  -0.3820727   0.4662497   0.2083238  -0.1107263  -0.0944343  -0.2493721
  -0.0842674   0.4438768   0.6827749   0.1643925  -0.6639525   0.1334710
   0.1140639  -0.1018631  -0.3887670   0.0756394  -0.1558450   0.0169698
  -0.8350319  -0.3329906   0.0376274  -0.0519220   0.0955440   0.0605497
   0.7354206  -0.3905538  -0.2700614  -0.4408586  -0.9432965   0.2254662
  -0.2016946   0.3092075  -0.0693283   0.0591674   0.8628670   0.0425973
  -0.1005765   0.4676284   0.0548584  -0.2660417  -0.2100210   0.2328233
   0.3030447   0.3886878  -1.1663815  -0.0722384  -0.2419538  -0.4666747
  -0.3774040   0.0226018   0.1732448  -0.1367689   0.1977521  -0.2171561
  -0.9348774   0.1964667   0.2550187   0.0731534  -0.1182261   0.0847293
   0.1730288   0.2712332   0.3141443  -0.2735121   1.0060948   0.2995282
  -0.0161798  -0.0682076  -0.2029304   0.0667359   0.2437529  -0.9169014
   0.9165349  -0.4744282  -0.2892227   0.0448494  -0.2435657   0.0502095
   0.5320381   0.3883168  -0.2023660  -1.1592838  -1.0466507  -0.0306663
   0.3386849   0.1122929   0.3518317   0.5750828   0.2063572   0.1738058
  -0.1232596   0.6552441   0.4752244  -0.3271489  -0.1697833  -0.0522595
  -0.9976274  -0.0446943   0.0580396   0.4541739  -1.2493835  -0.6194062
  -0.2505722  -0.0064365  -0.0365144   0.5439648  -0.3713558  -1.4286596
   0.3069664  -0.0577735   0.2670196  -0.2101921  -0.1551281  -0.3610121
  -0.1201435  -0.7159390  -0.0607365   1.0846051  -0.6036489  -0.2341127
   0.1164039  -0.3018686  -0.2558061   0.3479460   0.1618479   0.3703099
   0.0190676  -0.5710916  -0.4321151   0.0827731   0.0391259   0.1397047
   0.5108133  -0.2797924  -0.8188040   0.3757476  -0.0978383  -0.3911383
   0.2203304   0.0474975   0.3433067   0.5247481   0.8872957   0.2088782
  -0.3799814  -1.4684094   0.5152556  -0.1141611   0.1423184   0.0375237
  -0.0593666  -0.0494506   0.8078746  -1.0811601   0.1060364  -0.3200787
  -0.1173695  -0.2358223   0.2658680  -0.4122972  -0.4909442  -0.9007751
   0.3653697   0.3973959   0.6589220   0.2647323   0.0635800  -0.0609385
  -0.4774588  -1.0530096  -1.6600258  -0.5712185   1.4655710   0.9299094
   0.1226200  -0.2305677  -0.1566528  -0.1999021  -0.1220921  -0.0732873
   0.3795623  -0.1674229  -0.7049423   0.0681958  -0.0539796   0.0665600
  -0.6041307  -0.0333319  -0.1146081  -0.4868670  -0.1514159  -0.0707292
   0.0266692   0.0375528   0.1037235   0.8930609   0.4202107   1.2068162
   0.4706951   0.7787340  -0.5748710  -0.0517222   0.0678302   0.2927982
   0.4049001   1.1016541   0.3561592  -1.8627011  -0.2615252   0.4617215
   0.4066912  -0.0397064  -0.0934640   0.3252466   1.0353694   0.8724542
   0.3437367   0.4619431   1.0139290  -0.0363769   0.0617044  -0.2249615
   0.6983230  -0.2508508  -0.0249322  -1.4022472   0.6276057  -0.4887190
  -0.2627939   0.0409344  -0.4822457   0.2960270  -0.6159367  -0.7709482
  -0.0875729   1.0068784   0.3018486   0.1695893  -0.0922139  -0.2185412
  -0.0049535  -0.2068200  -1.3056525  -0.1136475  -0.1690892   0.2895690
  -0.3684556   0.1241066   0.1679827  -1.0458415   0.8590332   1.2384262
  -0.7473361  -0.2970637  -0.0458623   0.0357630  -0.0506624   0.3763311
   0.1389933  -0.5949618   0.9283084  -0.1239939   0.7734348   0.1563798
   0.0829813   0.1475507  -0.1464154   0.0229830   0.2607822  -0.0814981
   0.0057752  -0.3433167   0.1194225   0.0168472   0.2249772  -0.2113119
  -0.2749941   0.4267245   0.1578175   0.5101549   0.0443240  -0.4183388
   0.0007302  -0.2078281  -0.0162062  -0.4236664   0.0369758   0.0906518
   0.1730861   0.8374309   0.3487050  -0.1061683  -0.0244446   0.2602181
   0.4335817  -0.3188429  -0.9207314   0.2390039  -0.3742291  -0.4900379
   0.0521289  -0.0834260   0.0810389   0.0780188  -0.2178556   0.1595725
  -0.0768575   0.0502157  -0.1168557   0.1836581  -0.2860216   0.1758910
  -0.1353040  -0.5690662  -0.9560027  -0.4769700   0.6062286   0.5005786
  -0.1329803   0.1198900   0.2479704  -0.6070912  -0.1823138  -0.0087783
  -0.4786221  -0.2101508  -0.0518241   0.0554902   0.0554716  -0.2105539
   0.2129594  -0.4786802   0.9454826  -0.0748692  -0.6728437  -1.0160845
   0.0413236  -0.0363628  -0.2199995   0.4201644  -0.2512360  -0.6391648
   0.3167778  -0.0321896  -0.5206359  -0.3036865   0.0640782   0.4183516
  -1.2859373   0.3874357   0.2442921   0.5852521   0.4048445  -0.8823590
  -0.3066006  -0.3654411   0.2978084  -0.0261392  -0.2478812  -0.0967237
   0.2516835  -0.0374569  -0.7319595  -0.0809025   0.0273628  -0.1908610
   0.0402806   0.0679966  -0.0847857  -0.2838589  -0.0192876  -0.3323607
  -0.1261607   0.1424437  -0.2090965   0.0113668   0.7159836   0.1093686
   0.7160478  -0.8542767  -0.6281866   0.0949189   0.2206653  -0.3389242
   0.2419539   0.5775787   0.0547962   0.1997275   0.6822446  -0.8801244
   0.2541149  -0.2645582   0.0285844   0.3700132   0.7446677   0.2693422
   0.2365839  -0.6968899   0.2665018   0.0394473  -0.0145107  -0.1011013
  -0.8109642  -0.3504885   0.4111817  -0.5992813  -0.0325085  -0.9632611
   0.0523564  -0.2367256  -0.3131236  -0.1696932   0.3353434  -0.7502337
   0.2255829  -0.2840357   0.0088324  -0.1764946   0.0967320   0.1298403
  -0.7117011  -0.2202572   0.5234778   0.1192662   0.1825654   0.2143418
   0.0372084  -0.0812900   0.1144285   0.1834719  -0.3193272   0.1497777
   0.0021442  -0.0742216   0.3501129  -0.2488848   0.1925528  -0.0493275
  -0.6025030   0.0158625   0.0749843  -0.0212087   0.4071940  -0.4633215
  -0.0046154   0.2846478   0.1228545   0.4014733   0.2706073  -0.1991395
   1.4149156   0.3571019  -0.1346747  -0.1725027   0.0379154   0.0410844
  -0.9996748  -0.2596517   0.8442215   0.7803358  -0.6850392   0.2926037
  -0.2487203  -0.1781223   0.4203334  -0.4023393  -0.5630351  -0.9507551
  -0.4440291  -0.0407997   0.6412367   0.1982101  -0.1581643   0.0539468
   0.5716537  -0.4529347  -0.3337911   0.6072585   0.0453893  -0.8150076
  -0.3933536  -0.2275486  -0.1297684  -0.5701531  -0.6418509   0.2921276
  -0.5976202  -0.2065924  -0.1675180  -0.2658898  -0.1224610  -0.2485370
  -0.5124233  -0.2082035   0.4061196  -0.3106916   0.0628016  -0.5196910
   0.1184841  -0.0633807  -0.1117640  -0.0262100   0.3791724   0.2297870
  -0.8166021   0.3729088   0.1331130   0.1141581   0.0138620  -0.1291870
  -0.4324442  -0.3379076  -0.1447900   0.2857549  -0.6622280   0.6963163
   0.2345437   0.1150638   0.0851033  -0.2318467   0.9701791  -1.0523920
  -0.2450441   0.8425170   1.2865434   0.2224134  -0.1660423  -0.0588971
   1.1246269  -0.3687533   0.7512117  -0.5126973   0.2518802  -0.3257647
   0.3815335  -0.1996039  -0.1085765   0.0461282   0.0434369  -0.3286137
   0.6099474  -0.3812753   0.2594407  -0.2936573  -0.0973784  -0.3485838
  -0.6551871  -0.3356412  -0.5948476   0.2482149  -2.3205056  -0.6924412
  -0.2319309   0.0080989  -0.1325056  -0.9340286  -0.1813184  -0.6657573
   0.8758299   0.1019661   0.0679561   0.0609221   0.2086146   0.0059702
  -0.2656535  -0.5478193  -0.3415854  -0.4191088  -1.1173335  -0.5559828
   0.0716468   0.1049834   0.1548861   0.7994951   0.2402548  -0.5313518
   0.2434158  -1.0930812  -0.1597247  -0.2363833   0.0202546  -0.0252236
   0.4001226  -0.6015537  -0.5305746   0.1591392   0.7490791  -0.0345365
  -0.0301513  -0.2793422   0.0315766   0.5611776  -0.0728590  -0.5266929
  -0.1458742  -0.3189948   0.2731943  -0.1579816  -0.0455719   0.2668057
  -0.1617798  -0.0571583   0.3010626  -0.1380799   0.4396638  -0.3741722
  -0.1694149  -0.0089738  -0.2623757  -0.3878301   0.2994375  -0.5599618
   0.0860657   0.1247146   0.1836237  -0.0815168   0.2203399   0.1107321
   0.6118340   0.3805058   0.1113457   0.1870800   0.2574378  -0.7230710
  -0.3664776   0.3627304   0.0229107   1.0572528  -0.8623619   0.3689133
  -0.3839872   0.2809716   0.7762611   0.1605805   0.1706598   0.0746750
   0.5606564   0.3600303  -0.2523393  -0.2285614  -0.5925322   0.1442007
   0.0114638   0.0394367  -0.1071752  -0.1962333   0.6188014  -0.2593680
  -0.1350703  -0.0531164   0.5724233   0.1749183   0.3010784   0.0457166
   0.1610406  -0.2930702  -0.2087477   0.9801039   0.5121330   0.6572610
  -0.0461163   0.0809701   0.2523951  -0.2667140   0.0959825  -0.4635471
  -0.4853848  -0.0104101   0.5295069   0.4338359   0.0282764   0.0163526
   0.3137815   0.1278865   0.7295221   0.6234594  -0.0050429   0.6075147
   0.1026266   0.3533180  -0.1248194  -0.1992953   0.7233355  -0.6417501
   0.7335395   0.1005974  -0.4185754  -0.2349556  -0.0702439   0.3307306
  -0.0709149  -0.4575494   0.3533625   0.1186960   0.2910358  -0.4746810
  -0.1413724   0.3863725  -0.0841632   0.2472132   0.1364547  -0.5234313
   0.3797087   0.2272308   0.5357905   0.0045067  -0.2020199   0.0196902
  -0.9434121  -1.1487917  -1.1613608  -0.1768143   0.3765231   0.2813931
   0.1065205  -0.4427552  -0.2075887  -0.1441471  -0.2509876   0.2504315
  -0.0163869  -0.3164137   0.4001371   0.1205378   0.1175728  -0.1279309
   0.7484519  -0.2464079  -0.3637011  -0.5899386   0.1574076  -0.1673428
   0.0663459  -0.1980542   0.0567057   0.5460747  -0.2141267   0.8348158
   0.0548553   0.6072159  -0.7443738  -0.3883935  -0.1394586   0.2335612
  -0.4314743  -0.2083481   0.1376637  -0.3200812  -0.1152230   0.2482670
  -0.1175688  -0.0839429  -0.2263278  -0.3088931   0.2129848   0.1553426
  -0.5629718  -0.3296672  -0.2440304  -0.0259553  -0.0160304  -0.0778277
  -0.6487577  -0.5778703   0.7768890  -0.8725332  -0.5169913   1.2407811
   0.0011958   0.1215337   0.0135844   1.2663329  -0.0361459  -0.2266022
  -0.9881536   0.2546157   0.1752683  -0.0645066  -0.3660484   0.2629548
   0.0768508  -0.3634429   0.6107454  -0.0552383  -0.3684421   0.3548681
   0.0964750   0.0270164   0.1904551  -0.6079746   0.9969520   0.6321539
   0.5018094   0.3361875  -0.9628771   0.1062733  -0.3105660  -0.1529195
   0.0367206   0.1923755  -0.8584144   0.3814663   0.3022926   0.6115805
  -0.1522930  -0.1141525   0.1524805  -0.3474017  -0.5844790   1.2153108
  -0.5432492  -0.0095720  -0.5219803   0.0431399   0.0205969  -0.2981198
   0.5289338   0.5376280  -0.6363750  -0.3124603  -0.2970702  -0.0872408
  -0.2131702   0.1202378  -0.1468192   0.1361894   0.6262775  -0.9575532
   0.1482265  -0.1835355   0.7984982  -0.3244905  -0.0441649   0.0604179
  -0.6016086  -0.1966950   0.4251349   0.0811914   0.2523906  -0.2038648
   0.1485646  -0.3857859   0.0018122   0.3240707   0.0440298   0.4636902
   0.4379631   0.9626534   0.6791557   0.0822765   0.1467364  -0.2210769
   0.7567787  -0.4158218  -1.0135649  -0.1887783  -0.4582164  -0.7426980
   0.2569169   0.1932533   0.1062098   0.0394920   0.8856025  -0.4107332
  -0.3235902  -1.2563900  -0.3444794  -0.1216931  -0.1425438  -0.0223074
  -0.7564816  -0.9802728  -0.6880506  -0.9419712   0.5659400  -1.9455361
  -0.0479711   0.0521837  -0.2962668  -0.4101909  -0.6802600  -1.0919957
  -0.7453394  -0.0311593  -1.0080718   0.2118319  -0.0021842  -0.2123326
   0.2342226  -0.1449061  -0.5876213   0.1137382   0.5228216   1.0086913
  -0.1216504  -0.0573531  -0.1899299  -0.6311119  -0.3703830  -0.9779630
   0.8338209   0.1852237  -1.1916470  -0.0176206   0.0278219   0.0074048
   0.1293124  -0.0977716  -0.2362747  -0.0794487  -0.2989707  -0.0099742
  -0.0335221   0.3218313   0.0149113  -0.1300271   0.4089817  -0.2285260
  -1.0125444   0.6777858  -0.1912362   0.0521433  -0.1893091  -0.1172770
  -0.4102399   0.5261232   0.3800331   0.5398857   0.2407478  -0.9111295
   0.0630546  -0.4447202   0.1334357   0.2782599  -0.3587287  -0.0097070
  -0.3894065   0.4638649  -0.3934570   0.1681428  -0.1219859  -0.0379108
  -0.4655845  -0.1316372   0.4616504  -0.3730652   1.5189725  -0.6492921
   0.2429273  -0.3223125  -0.0335896  -0.2793442  -0.7054342   0.3467952
  -0.4074249  -0.4527612   0.4672517   0.0374242   0.2811995   0.3372833
  -1.3745173  -0.1735186   0.6124306   0.6234753   0.3259780   0.2031074
   0.0761860  -0.0163299  -0.0258828   0.1139221   0.4206767  -0.3327019
   0.4388586  -0.1886629   0.1340838   0.2679681  -0.1848897   0.2026465
   0.2350968   0.5297105   0.2412701   0.2380915   0.0679383  -0.1989538
   0.0804528  -0.1233907  -0.2704361  -0.5050659   0.0148491  -1.4249764
   0.5671720  -0.1408064  -0.1839132   0.0615414   0.1749591  -0.0034946
   0.4081668   0.4787802  -0.7181952   0.2170559   0.6395455  -0.0464873
   0.2992863   0.0487701  -0.0942520   0.6347497  -0.4092610  -1.1266242
   0.7625101  -0.9322993  -0.5821542  -0.0480229   0.0416821   0.2477925
   0.1730262  -0.1916169   0.4277356  -0.3042707   0.1297843   0.4937669
   0.0234655  -0.1188880   0.1674622   1.1171859   2.1969715  -0.5829077
  -0.4285550  -0.4278552   0.4256778  -0.1621570   0.0820776   0.2539040
  -0.4507447   1.3529041   0.7685292   0.0857908   0.4576374  -0.0192797
   0.1034686   0.1458019   0.0073764   0.0890118   0.6425901   0.0720730
   0.8796596   0.6506265   0.1979991   0.2099004   0.0417822   0.0666486
  -0.5403478   1.7670595   0.4983722   1.5506892  -0.8751492  -0.7576786
  -0.1889051   0.2991876   0.0233289   0.2103157   0.4573226   0.4040098
  -0.5368757   0.4531145   0.4030786   0.0683731  -0.2970984  -0.1029967
  -0.0313549  -0.4260694  -0.2858800   0.0139040   0.4053693   0.3305863
  -0.2280210   0.0060515  -0.0564370   0.3977154  -0.2039741  -0.5145592
  -1.3204320  -0.5986879   0.1305912  -0.1721142   0.1009898  -0.0260954
  -0.0417948   0.0760554  -0.1943785   0.8579562   0.3262156  -0.0947858
  -0.1206353  -0.0707589  -0.1555311   0.2552357  -0.4859848  -0.3430138
  -0.0034332   0.3888958  -0.5225583  -0.1621151   0.1472177  -0.3337299
   0.5120795  -0.2776591  -0.2981181   0.5257314   1.0572613  -1.1279839
   0.0013025   0.1518331  -0.0340263  -0.2527549  -0.1935455  -0.3302348
  -0.3459859  -0.0385026   0.3240897  -0.0947477   0.2862061  -0.4889537
  -1.3123007   0.0044736   0.0146846  -1.0210736  -0.0817913   1.2133495
  -0.1809336   0.2073039  -0.4263568  -0.2530501   0.6790383   0.0071855
  -0.0707873   0.8137743  -0.4287391   0.1668983  -0.1367294  -0.0415230
   0.4461397   0.2615746  -0.3807328   0.1469905   0.1174171  -0.3427576
   0.1159386  -0.1362605  -0.0601276   0.0339935   0.4013398  -0.8004071
   0.5426568  -0.5187110   0.9929861  -0.3887521   0.0131638  -0.0002321
  -1.2496304  -0.3838832   0.1601532  -0.2496282   0.7760309   0.7284777
  -0.0314017   0.2421484   0.1677037   0.3546212   0.6320252   0.0766573
  -0.4295674  -1.1678534   0.2299663  -0.0420043   0.2137960   0.0304102
  -0.9457156   1.0121359   0.5374177  -1.0159775  -0.3497911  -0.6879494
   0.1034784  -0.1844081   0.0146779   0.1119923   0.0703909  -0.6182550
   0.8072941   0.1974166   0.4102105  -0.1747294  -0.1150893   0.2475642
   0.1287610   0.3269476   0.1808667  -0.3236348   0.2651279   0.5394824
  -0.2115087  -0.1549908  -0.0385505  -0.4114622  -0.3135849  -0.1993000
   0.3127306   0.2589875   0.3633951   0.0456886   0.3598801  -0.0047997
  -0.1556788   0.5600513  -0.8045643   0.7137976  -0.8406895  -0.2931807
  -0.0740526   0.4330106   0.1811853  -0.9516710   0.8461522   0.3098084
   0.8681278   0.1470078   0.0657398   0.0322711  -0.2641507   0.0852889
  -1.0367304  -0.1334237   0.6746048  -0.0207221   0.3212936   0.0112406
   0.2594560   0.2451991   0.0730284   1.0180105   0.4549996   0.6252243
   0.0121822   0.0799237  -0.0683689  -0.0919095  -0.3238573   0.3113683
  -0.0006688   0.2712420   0.4647159   0.2920227   0.0276525  -0.0682810
   0.0554823  -0.0834817  -0.2764298  -1.2771684   0.0727683  -0.9723957
  -0.1380806  -0.0119802  -0.3055967   0.0457309   0.0755957   0.3172457
   0.4035341   0.0208033   0.1875193   0.2687936   0.8527012   0.1809871
   0.2615751   0.1512830  -0.0860000   0.3575164   0.4399901  -0.0768618
   0.3734433   0.0180831  -0.3716981   0.0902713   0.2310676   0.1028330
  -0.2518631   0.6196877   0.3048336  -0.2472129  -0.3344898   0.1329624
   0.0298987  -0.4965926   0.1734799  -0.1186710  -0.6674064   0.3295878
   1.0119840  -0.5910812  -0.5071561   0.2089237   0.0482418  -0.0998477
  -0.4871004  -0.7737245   0.7029628   0.1575946   0.1616145   0.0515003
   0.1575085  -0.3903343  -0.1264433  -0.3133264  -0.8814684  -0.2127890
   0.8735880   0.4359215  -0.3067293  -0.3022604   0.2204986   0.0896205
  -0.4372073   0.3862721   0.0959508   0.5773372  -1.4236957  -0.5789994
  -0.0311555   0.2125897  -0.0477066   0.0509342  -0.3685822  -0.0872638
   0.1906861  -1.0857081  -0.2199246  -0.2765600  -0.0743702   0.0009183
   0.5223706  -0.3545256   0.1411618  -0.5073679   0.1472509  -0.1117506
  -0.1461364  -0.1849628  -0.2003150  -0.1805638   0.5147203   0.9022714
   0.9574616  -0.2454816  -0.7441132  -0.0852808   0.1797587   0.0042320
   0.5016722   0.2769173   0.6827655  -0.5660698   0.3624527   0.6858817
  -0.2802155  -0.0097320   0.2712165   0.3716665   0.3420973   0.1380175
   0.5100729   0.2565668  -0.1455402  -0.1452106  -0.3141219  -0.0456612
   0.2636571   0.3175129   0.6020077   0.1489127   0.1531609   0.4539011
   0.0308420   0.1185819   0.2696746   0.1579122   0.0502323   0.1954784
  -0.1851827  -0.0050370   0.3953773   0.0774427  -0.0047399   0.2897743
  -0.3641641  -0.1612808  -0.2527226   0.9179875   0.5183362   0.1421679
   0.0903672   0.1944858   0.1393763   0.2777148  -1.3095196   0.6264675
   0.1718328  -0.5306381   0.3262885  -0.0546681   0.1763152  -0.0159729
  -0.1339430   0.1009346  -0.0116201   0.1744885  -0.0051381  -0.5080679
   0.1721369  -0.1220120   0.1009380  -0.9447161   0.0176505  -0.8153667
  -0.8151795  -1.2274207   0.0682727   0.1761412   0.2195398   0.5341202
   0.0488994  -0.9344620   0.5793381  -1.1229264  -1.4848525  -0.8961368
  -0.0994996   0.1203253  -0.3336218  -0.5164336   0.6037384  -0.3701260
   0.0202136  -0.4054963   0.3304886  -0.0082162  -0.1679956   0.1138523
  -0.2181955   0.2398563   0.0036892  -0.2917757  -0.3514161   0.4664766
   0.0805257  -0.0237322  -0.4452300  -1.6133905   0.4225773  -1.3431174
   0.5120031  -0.8892329  -0.5143056   0.1534801  -0.3269395  -0.0586273
   0.1747029   0.4202112   0.1702526   0.1061935  -1.0403234  -0.2863031
  -0.1631222  -0.1496279  -0.2393919   0.1903495  -0.6743613  -0.5331454
   0.2718639   0.1181183   0.2339651  -0.2511316   0.0435881   0.0541350
  -0.5617298   0.1386743   1.0457343  -1.2597922   0.9947589   0.0431199
  -0.0367604  -0.1394852   0.1679662   0.7099724   0.1920378  -0.0354232
  -0.3696235   0.0520461   0.3766245   0.1805598  -0.0769785   0.1801510
   0.3264304   0.0002869   0.4411200   0.3504887  -0.2728622  -0.0196373
   0.1831651   0.0724167  -0.0362619   0.5683979  -0.2130659  -0.8009748
  -0.1439777   0.3349569   0.2869812  -0.0450906   0.1509430  -0.0582265
  -0.6295538   0.7100824   0.1406828  -0.1085062   0.1507117   1.3383503
  -0.0189384  -0.0019876  -0.0845967   0.4673197   0.5074016  -0.3162786
   0.3603465  -0.5052539   0.3525380  -0.0294946  -0.0008060   0.0432015
  -0.0120501   0.9601949  -0.1693086  -0.0406754  -0.4889901   0.5664877
  -0.0090812   0.0913118  -0.3404887   0.2466156  -1.0183070  -0.5520497
   0.1367906   0.4283811  -0.3164363   0.3204124   0.1777822   0.1489441
   1.0302508   0.5855920   0.8373304   0.6981734  -0.7972075  -0.0830790
   0.2493573  -0.1435788  -0.3541903   0.2495970  -0.4283171   0.3726923
   2.2347674  -0.8980101   1.4980601  -0.0897007  -0.0733189   0.1003725
   1.0405905  -0.1435673  -0.6424693   0.4249600   1.6532631  -0.6520027
   0.1464876  -0.1958438  -0.1772146  -0.9867919   0.3341628  -1.5796689
  -0.1340364  -0.7781134   1.8032399   0.1266055   0.1222714  -0.0454383
  -0.5294921   0.4795468  -0.4472397  -0.2454069  -0.7698508  -0.0895250
   0.4791091  -0.1184655  -0.0863395   0.9718442   0.3287061  -1.3644019
   1.3461914   0.9218598   0.9140698   0.0330792  -0.2111427   0.1235126
  -0.2797274  -0.7480643   0.1593635   0.7025499  -0.0502085   0.8844791
   0.6184086   0.2091669  -0.1603705   0.1858363  -0.2325268  -0.5374385
   0.2707917   0.8633512  -0.1930888   0.0864201  -0.0233430  -0.1919211
   1.2727390  -1.2342448  -0.4480016  -0.2559120   0.6881476  -0.6473834
  -0.3687277  -0.1725326   0.0994641   0.6281870  -0.1184467   1.0169614
  -0.0683740  -0.8427897  -0.4846432  -0.1204688  -0.0028930   0.0093734
   0.6788765   1.2725077   0.5483392   0.1244346  -1.2941838   1.0798427
   0.0442077   0.0069791   0.3014377   0.0203974   0.0856871   0.1439646
   0.7640800  -0.1685115   0.1406504  -0.0976711  -0.0535581  -0.0916083
   0.8290922   0.3542491   1.1536336  -0.0690150  -0.0652673   0.0872696
  -0.0285824  -0.3302366  -0.1383165  -1.0652033  -0.2438674   0.4015622
  -0.3435501   0.1131054  -1.5580821   0.1199737   0.0371524  -0.0259284
   0.2087915   0.2804383   0.2544492  -0.5607872  -0.7529022   0.6266667
   0.1541553  -0.0499918   0.0676077   0.0952902  -0.3486465  -1.2366760
   1.5212932  -0.7364862   0.4784966   0.0777384  -0.1149158   0.1665302
  -0.3570933  -1.0913072  -0.7210897  -0.8463279   0.2340692   0.2321885
   0.1055826  -0.2387243  -0.2469378  -0.2896814  -0.0722732  -0.0360153
   0.5958034   0.1499821  -0.9175516   0.1403850  -0.1386978  -0.2635008
  -0.0790718  -0.7794990   0.1945191  -0.4486111  -1.6368850   0.8044120
   0.0786876   0.4083400  -0.0440814   0.2581096   0.4953823   0.0677602
   0.0545140   0.6946858  -0.0695063  -0.0614435  -0.2146634  -0.0964974
  -0.0998299  -0.5056882   0.7443279   0.1078727  -0.0552071   0.5342535
  -0.5385923  -0.0484897   0.1250195  -0.3350516   0.5688267   1.1050267
   0.6541862  -0.7796144  -0.0086657   0.4253722  -0.0237818  -0.2759119
   0.3023167  -0.6388854   0.0097947   0.1616388   0.0526833  -1.1300912
   0.1050732   0.1192003   0.5263573  -0.0331812   0.6344457   0.6906343
   0.1703792   0.2394144   0.3646536   0.0501572   0.2054882   0.2818436
  -0.0618295   0.2469839   0.6642379  -0.2893254   0.2504798   0.1641957
  -0.0694085  -0.3608163   0.4536854  -0.1045763  -0.6396979   0.9274039
   0.0407951  -0.2524056   1.4481251   0.3696226   0.1020682  -0.3717232
  -0.1032697   2.1466148  -0.7712798  -0.0967359  -0.1133521  -0.0905037
   0.0903328  -0.0452982   0.1446999   0.3349128  -0.0981486  -0.0429127
   0.1314770   0.9398862   0.5321178  -0.1159146   0.0258668  -0.2560165
   0.1907474   0.4028959   1.1543515  -0.4293381   0.7030560   0.5797873
   0.0046880   0.1892597  -0.0799015   0.3258683   0.7671900   0.3183091
   0.0458922  -0.3409350   0.2965290  -0.1301527  -0.2770183   0.2192511
  -0.2387024   0.2645553   0.4339114   0.2080656  -0.0449844   0.2637652
   0.0596057   0.0431213   0.0477529  -0.1565807   0.6787324   0.2356261
   0.1578550   0.3039834  -0.0622707  -0.0937834   0.0838360   0.0730604
  -0.5687323  -0.3909226   0.4911163   0.5177678   0.4446307   0.0322291
  -0.0433585  -0.1967294  -0.1374430  -0.2565531  -0.4046656   0.3093295
   0.7592921  -0.6851971   0.7127119   0.3290416  -0.1798748   0.0210060
   0.1944161   0.5259875  -0.2432631   0.0736588  -0.6202787  -0.6889403
   0.0841670   0.0239130  -0.2288162  -0.4048028   0.1628366  -0.1689901
   0.3617978   0.2237557   0.0096180   0.0210566   0.0198171   0.5320458
   0.3005340  -0.2472940   0.0777886   0.1144264   0.3019486   0.3542027
  -0.1162581   0.1315340  -0.0223970   0.9904456  -0.1168686  -0.2671128
  -0.6023445  -0.9229855   0.2802130  -0.0467115   0.2317608   0.1830371
   0.1565650  -0.0998326   0.4420327  -0.2271250   0.4548128   0.2106750
   0.0016155  -0.1430843  -0.1466113   0.1919784  -0.0267862   0.4179792
  -0.3138423  -0.3219832  -0.7516809  -0.0485933  -0.3393292   0.0559479
   0.1100445   0.3346882  -0.3311919  -0.0463408  -0.0852091  -0.5212019
  -0.0103411  -0.0408860  -0.4718245  -0.4370847   0.6373866   0.1396333
   0.7461903  -0.3696733   0.2172317   0.2776919   0.0565061  -0.0430441
   0.4078967  -0.2176210  -0.5636052   0.0151978  -0.0965223   0.4144717
  -0.2312795  -0.0926146   0.0572461  -0.0170341   0.2633960   0.4567702
   0.8304665   0.0710241   0.3431236  -0.3203754  -0.2467772   0.0039125
   0.5613799  -0.3026710  -0.2929370   0.1405875   0.7635099   1.0313301
   0.0514884  -0.3979656   0.1425691   0.1003191   0.2512002  -0.3913726
  -0.0407071   0.7368752  -0.9550224   0.0055476   0.1258765   0.1883354
   0.8230708   0.8444338   0.0438706   0.4900798  -0.6017125   0.0537897
  -0.3903221   0.1510080  -0.0138677  -0.6540273   0.9494416   0.1183822
  -0.9264829  -0.0173164  -0.4764278  -0.2247836  -0.0611460  -0.0432726
   0.0125010   0.6553015   0.0519762  -0.2248918  -0.3044731   0.3495681
  -0.2125183   0.2596434  -0.1392578  -0.1197530   0.1419164  -1.1788233
   0.0902683  -0.2174328  -0.5619219   0.2256059  -0.2988068   0.1237364
   0.6898143  -0.4506762   0.2204007   0.4190737  -0.1534447   0.3337520
  -0.2344548  -0.0763339  -0.1130991  -0.1211809  -1.3770005   0.4388163
   0.0007492   0.9906691   1.1104588  -0.0814006  -0.1229413  -0.0322851
   0.7200864  -0.9058377  -1.2821829  -0.5227670  -0.1668124   0.8279703
  -0.0776431   0.0586124  -0.0084011  -0.1979217  -0.1504229   0.1644204
   0.1579428   0.2861254  -0.4501396  -0.2665313   0.0545927  -0.0894360
  -0.3429716  -0.0192707  -0.1574310   0.0000963  -0.0590851   0.2060399
   0.4262873  -0.1214439  -0.1492582  -0.3359429  -0.0215267  -0.7827097
  -0.8751663  -0.1153152   0.1280661   0.0433274  -0.0640016  -0.1989879
   0.1196357  -0.4058476  -0.7720648   0.1151626   0.5844885  -0.3906506
  -0.1934279   0.1050990   0.0561919  -0.3972043   0.1719409   0.4317219
  -0.0096602  -0.0455236  -0.2862809  -0.0665620  -0.3955048  -0.1093613
   1.1407838  -0.2387674   0.1233305  -0.2885950   0.1728119   0.1734423
  -0.3998709   0.1722943   0.0823095  -0.5632777  -0.4502610   0.6610937
  -0.4857850  -0.0214518   0.1021031  -0.0542096   0.0214352   0.1971975
   0.0970405  -0.0793764   0.3241562   0.8386204  -0.2876147  -1.1246892
   0.0677084   0.1411841   0.0534629   0.3316806   0.3924776   0.4414719
  -0.5541652  -0.0645506   0.2396770  -0.3642230  -0.0145305   0.1075464
   0.3314320   1.0657092  -0.9065708  -0.7549267   0.4705225   0.4493748
   0.2456590  -0.3845011  -0.1045648   0.7712675  -0.3175971   0.8339565
  -0.9867615   0.3785680   0.5900362   0.2299207  -0.1373932  -0.2496515
  -0.8187077  -0.1144871  -0.1146871   0.3163550   1.0182919  -0.5503637
   0.4829153   0.1469817   0.2630518   0.0217620  -0.0201399  -0.0280477
  -0.3419288  -0.2994606   0.0010882  -0.2064429  -0.2866691   0.0065862
  -0.4621060  -0.0206844   0.4998550  -0.0561161  -1.2383520  -0.7173912
  -0.4099941  -0.0424185  -0.0711773  -0.4141210   0.3383825  -0.4851421
  -0.5172505  -0.2272320  -1.2330470   0.2342469  -0.0900651   0.0719735
   0.2578399  -0.3360637   0.9595834  -0.3854121  -0.1925688  -0.3558574
   0.2976238  -0.0144239  -0.1041781  -0.9174379  -1.1490878  -1.3285585
   1.3820509  -1.3349852  -0.2092616   0.2119701   0.0232185   0.2826914
   1.2631574   0.9690684   0.0071185   0.7990591  -0.9147005  -0.4501714
   0.0296430   0.1454465  -0.0425084   0.4709573   0.9005728  -0.2973246
   0.1951583   0.7811901  -0.1074137   0.3241586  -0.1780768  -0.0192510
  -0.0039405   0.7672279  -0.0416686   0.1964825   0.7493386   0.0892854
  -0.2208412  -0.2723187  -0.2633581  -0.8016039  -0.3311639  -0.1044197
  -0.1375529  -0.4272323  -0.5092395   0.3093901  -0.0439409   0.1525046
   0.2104454  -0.7727221  -0.3772260   0.6389053  -0.2502742   1.0379682
   0.2409144  -0.0825202  -0.0264875  -0.4989011   0.5623285   1.9244243
  -0.8970066  -1.0047713  -1.2041896   0.0760539   0.1292221   0.0073625
  -0.3901634  -1.0078024   0.4333180  -0.1837754  -0.2969481   0.0658750
  -0.0931343  -0.0176493   0.0624853  -0.1681154  -0.2687782   0.7637554
  -0.0710202  -0.1999772  -0.5607729  -0.3782869   0.1128433  -0.2144324
   0.0784270   1.1233490  -0.7312032   0.1950744  -0.4262870   0.0048820
   0.0406377   0.2479118  -0.2345305   0.5955354   0.6722363   0.2824068
  -0.1211176   0.9879954   0.3427851   0.0527876   0.1016289  -0.0127472
   0.1337734   0.1968708  -0.4584645   0.1710658   0.1579314  -0.2174619
  -0.0653400   0.0988454   0.1461647   0.0844761  -0.4294443  -0.0462360
  -0.3045524   0.7984067   0.4674765   0.2964380   0.4629751   0.0177497
   0.2992841  -0.6586784  -0.2034556   0.6642166   0.6151297  -0.0752510
  -0.0212098   0.0244333  -0.3215269  -0.5301653  -0.3725268   0.0556795
   0.4668874   0.3895856  -0.3727545  -0.3803765  -0.2628810  -0.0608023
   0.0215084   0.0082726  -1.0240232  -0.2987477  -0.0568828  -0.3841417
  -0.1070004  -0.0599765   0.0419431   0.6200044  -0.8213480   1.3257630
  -0.6838085  -0.2191921  -0.2566022  -0.0368493   0.0498039   0.0978968
  -0.0569119   1.2646554   0.6715738   0.1320730  -0.6238930  -0.3175430
  -0.2406682  -0.0151767  -0.3591667  -0.7544065  -0.2061052  -0.2377671
  -0.1976802   0.3834575  -0.9637125   0.0596268   0.1018321   0.0460474
  -1.6881161  -0.1661204   0.7046364  -0.6054481   0.0955071  -0.4006897
   0.0475533   0.0359947  -0.2462741   0.5889181   0.3270974   0.5691621
  -0.1931561  -0.4998180   0.0294471  -0.1587154  -0.1482728   0.2516388
   0.3007520   0.1658116   0.7396684  -0.7718014   0.0180620   0.7235871
   0.2470431   0.3155675   0.2037275   1.6283317  -0.0558261  -0.2536570
   0.7724608  -0.0401821  -0.5306519   0.0569183   0.0614653   0.1484966
   0.3071895  -0.3467650   0.2264161  -0.4455585  -0.2449542   1.0608048
  -0.0125303  -0.1626975   0.0722859   0.6619064  -0.3061691  -0.5903702
   0.4519826   0.1065184   0.0100267   0.0164814   0.2274889   0.0346791
   0.3446319  -0.5630090  -0.9141850  -0.5294333  -0.2787674   0.8856938
   0.1934402   0.0448300   0.1138924   1.5243246   0.2632610   0.8562577
   0.1780816   0.0795848  -0.2083797   0.0659149  -0.0099490  -0.0308297
  -0.2195611   0.3639124  -0.1609405   0.1515689  -0.5996206  -0.4015983
   0.0477853   0.2667816  -0.0723046   0.0265391   0.0360081  -1.0540983
   0.5737419   0.7664263   0.7871086  -0.0458612   0.1188390   0.0391684
  -0.3585939   0.1773707  -0.2019778   0.4844302   0.0262455   0.2958652
   0.1111660   0.1770345  -0.2264241  -0.4310148  -0.3747320  -0.7239370
   0.0028788   0.0319734  -0.2075711   0.0283563  -0.2767045  -0.2677740
  -0.2799721  -0.8741344  -0.6284204   0.2867692  -0.3330516  -0.1127280
  -0.0619583  -0.0849719   0.0930645   0.4611846   0.3715189   0.5596538
  -1.2619812  -0.3621233   0.1959119   0.1527977  -0.1033876  -0.1008323
   0.6865131   0.0970210   0.5094016  -0.4813574   0.0282799  -0.6764261
   0.2324489  -0.0074472  -0.1717267  -0.0766942   0.7656668  -1.1838363
  -0.3106427  -1.1897859  -0.9101735  -0.0257334  -0.2597982  -0.2563918
  -0.4500124   0.4745057   0.3662188   0.2556037  -0.1990254  -0.7088121
  -0.1141713   0.2401189   0.0024069   0.2845110   0.7287500   0.2725142
  -0.1859843   0.5270247   0.1729122   0.0500454   0.3033455  -0.2610638
   0.1228538   0.9958716   0.3036891  -0.6904564   0.7301948  -0.0058575
   0.3851327  -0.3404169  -0.3090182   0.5473148  -0.2487456   0.4426402
   0.5473732  -0.2343041   0.4970789  -0.1721020  -0.1100570   0.0295441
  -0.3212622  -0.7092078  -0.3002241   0.2330466   0.1755086  -0.0988513
  -0.1817386  -0.1225477  -0.1585188  -0.6929375  -0.3189610   0.4420414
   0.3968779   0.5125964   0.4816207  -0.2553481  -0.1974807  -0.0651434
  -0.2668665  -0.1500292   0.1044811  -0.0305073   0.0489703  -0.1370182
  -0.0219042   0.0605301  -0.2992159   0.2007607  -0.8310324  -0.0666761
  -0.7861316  -0.4466985  -0.0087153  -0.0254580   0.0259529   0.1707853
   0.0284187  -0.1716130   0.7893414  -0.6988646   0.5659915   0.0707541
  -0.2817418  -0.1757499   0.2095671   0.0788802  -0.6682398   0.4791507
   0.2429149   0.0925891  -0.1911103  -0.1107650  -0.0548283  -0.2969278
   0.0475828  -0.1664283  -0.4113089  -0.4195218   0.1470193   0.1475613
   0.0526579  -0.0360419   0.1227428   0.1059283  -0.2240485  -0.0236470
   0.0001642  -0.0376040   0.3157248  -0.3715387  -0.0095213   0.0447030
  -0.6587683  -0.1738382  -0.5342328   0.7731757   0.5436162  -0.0260511
   0.0035337   0.3548014  -0.2609000   0.3805152   0.6348465  -0.3763302
   0.0892952   0.3299319   0.1125079   0.2494077  -0.1702179   0.1567859
  -1.6763586   0.1466411  -0.3166276   0.0518807  -0.2463070   0.4086148
  -0.1856810   0.1781457   0.2448863  -0.1357596   0.6552309   0.5508881
   0.3006481   1.1173995   0.7072401   0.0829134  -0.0054717   0.1963630
  -0.0893381   0.1364112   0.2624101  -0.2205230  -0.0610346   0.0061008
   0.1769867  -0.2295570   0.1661089  -0.6915846   0.5826705   0.9705320
   0.7282998   0.2934070  -0.6086270  -0.3251666  -0.1302374   0.3146043
   0.6883914   0.0465822  -0.0883136  -0.6338076   0.5241330   0.5516643
   0.1155445  -0.2181379   0.1991831   0.1891430  -0.5750422  -0.2769770
   0.8069603  -0.2068228   0.2918875  -0.2163041  -0.1553800  -0.3650259
  -1.4736832  -0.3770615   0.4519929   0.3956607   0.6244153  -0.3927091
   0.0149110  -0.3854521   0.0724594   0.8724387  -0.3578975   0.1318406
  -0.6002208  -0.7681197  -0.1740997   0.1009380  -0.0387801  -0.0761416
   0.0526133   0.4652847  -0.1634406  -0.6414096  -0.2669439  -0.4215685
  -0.0854022  -0.3338057   0.1512057   0.5188255  -0.4420534   0.3266022
  -0.3762816  -0.4386285   0.8317665   0.2283722   0.2200563   0.0238991
  -0.0983048   0.0708127  -0.7510770   0.3398271  -0.2944224   0.7554645
  -0.0607776  -0.1029835  -0.2145923  -0.2108234  -0.1246112   0.1262273
  -0.4085200  -0.2670710   0.2804533  -0.1578770   0.0492960  -0.0823885
  -0.2394702  -0.0333797  -0.1364137   0.1342662   0.3270689   0.2927327
   0.0675131   0.1708719   0.2518817  -0.7843486   0.1543374  -0.4587214
   0.0336123   0.2762401   0.0961278  -0.0248075   0.0176384   0.0496411
  -0.1473886  -0.0912737  -0.1333289   0.2317272   0.3491000   0.1438207
  -0.1343792  -0.0930359  -0.2425328  -0.7967479  -0.0707725  -0.0174899
  -0.1223875  -0.1626890  -0.8771130  -0.1744091   0.1404996   0.3310852
   0.3122351   0.3188597   0.2147068   0.4157332   0.7750096   0.3824252
   0.1844872   0.1948064   0.3422063  -0.5821984  -0.6167647   0.1319032
   0.4089735   0.4146597   0.2263704  -0.4506748  -0.0793896   0.1540976
  -0.5856646  -0.0628892  -0.0109947  -0.4181944   0.1076020   0.3930846
   0.1658070  -0.2252668   0.0831254  -0.6927952  -0.0983833  -0.1168010
   0.1668342  -0.1301713   0.5950759   0.1354530  -0.2986345  -0.0765317
  -0.8908942  -0.5275104  -0.3449785  -0.2800375   0.1621977  -1.2449740
  -0.3409160  -0.1082504  -0.1468226  -0.1221427  -0.0338244  -0.2362777
  -0.5310073  -0.1255295  -0.3249002  -0.1640338  -0.3915631  -0.1594847
  -0.1225256   0.1751241  -0.1922760  -0.2986943  -0.2690724   0.0731036
   0.1790829   0.1362424   0.5555619   0.6448244   0.2805066  -1.2444621
  -0.3822675  -0.2725156   0.8754595   0.1836128  -0.1631554  -0.2852900
  -0.1227259  -0.0071005  -0.0986469   0.0231583  -0.3276206  -0.6228633
   0.0468920  -0.1799789   0.1040640  -0.9017096   0.5567284  -0.2443201
  -0.8440387   0.4107653  -0.2683301   0.3068350   0.2943221   0.0033996
   0.4350718  -0.2735892   0.5700131   0.7576127   0.5512541   0.2256968
  -0.0051422  -0.2694195   0.0253145   1.1065351   0.2076551  -0.0426132
   0.5989976  -0.0631245  -0.1391150  -0.1910210   0.0511719   0.0210875
   0.4984826  -0.3629076  -0.0528222  -0.4359113  -0.1827623   0.7749568
  -0.1102903   0.1118779  -0.2895554   0.2820944   0.1077447  -0.5352059
  -0.1324880  -0.1936197   0.5071813   0.0365284   0.0377363   0.0762216
   0.3422090  -0.7887283   1.2043596  -0.1457498   0.1219608  -0.0569726
   0.1644988   0.1668447   0.1161136   0.5249263   0.3796873  -0.8078069
   0.0889772  -0.7020483   0.2133210   0.1826243   0.1086656   0.0052238
  -0.6497226  -0.7596395   0.5871492   0.1940181  -0.0100258   0.4322721
  -0.0873458   0.0012913  -0.1692000  -0.0932234   0.2175089  -0.1370088
   0.0910274  -0.6919685  -0.5036161   0.1972386   0.1369441  -0.0778576
  -0.3225574   0.6489426  -0.2723417  -0.5647388   0.4472522  -0.3648744
   0.0291037  -0.0302495   0.2555628   0.4613948   0.0893660   0.0972235
  -0.2248262   0.1274214  -0.2304435   0.0735911   0.0500801  -0.2007709
   0.0900978   0.1172840   0.0165406   0.1181702   0.2143013   1.4094822
   0.2471939   0.0111279   0.1053617  -0.1101382  -1.3571813   0.5971372
  -0.5971819  -0.6793673   0.2600820   0.3468875   0.2218528  -0.1686840
  -0.0662684   0.3744168  -0.0471593   0.4085858   0.1987134  -0.1791334
  -0.0576823  -0.1680375  -0.2603176   1.2000664   0.3837216  -0.0498609
  -0.2661315  -0.8966334   0.6643761   0.3391637   0.0254362   0.1149449
  -0.0115622  -0.5024211   0.7700697   0.3915523  -1.0077398  -1.1354370
   0.2716963  -0.0065765   0.3104327  -0.2014735   0.9824336   1.3443406
   0.4453939   0.3051225   0.6721661  -0.0741292  -0.0274735  -0.2872621
   1.4335736   0.3136780  -0.5240831   0.1964505   0.9722612   1.1223010
  -0.0024733   0.3502773   0.1725842   1.1084212   0.9334024  -0.1681323
   0.3256515   0.3515795   1.4836704   0.0719371  -0.0185564   0.1157731
  -0.4642735  -0.6954658  -1.0711411  -0.1248190   0.0903779  -0.1768226
  -0.1773482  -0.2078677  -0.2899795  -1.6797276  -0.5348920   0.0751797
   0.8585248  -0.1170908   0.0230632  -0.1883890   0.0703628  -0.2619445
   0.0101708  -0.3118345   0.9678090   0.6582509   0.2397252  -0.6481901
  -0.0378007   0.1083598  -0.0397607   0.3575856  -0.2284565  -0.4289932
  -1.1770531   0.0441575  -1.1578217   0.0129532  -0.0748637   0.1802538
  -1.6519020  -0.2950211   0.1535705   0.0769751   0.6938601   0.8161586
   0.1193690   0.3549024   0.0865658  -0.4600612   0.1453228   0.2081328
   0.1172448   0.3591691   0.0851432   0.1468944   0.1643543  -0.0790418
  -0.0561302   0.4586682   0.5862469   0.4259082   0.3429680   0.3711283
  -0.2086463   0.1792400   0.0024701  -0.0897790   0.8736862   0.0814207
  -0.3290934  -0.2441465  -0.0558076  -0.3123255  -0.0728076   0.1657816
   0.0274507  -0.1247608  -0.0942927  -0.6412000  -0.5562589   0.3731115
   0.0327535  -0.1689246   0.0267846   0.3092063   0.2014394   0.0633405
  -0.1363535  -0.0510567   1.2458297   0.1288903   0.2175373   0.0301136
  -0.7282462   0.9449725  -1.1971864  -0.3766562   0.8867592   0.1021677
  -0.1158599  -0.3998974  -0.0219099  -0.5136425  -0.2859770  -0.1441656
  -0.4997854  -0.3342622  -0.5338034  -0.0221165   0.0905478  -0.0839602
  -0.6858260   0.6835617  -1.5332809  -0.5131441   0.2179521  -0.3894300
  -0.0757972   0.4215702  -0.3915549  -0.6766351  -0.1833991  -0.0910889
   0.4602612   0.1044286   1.0507336  -0.0879960   0.1482671   0.1071496
  -0.5097276   0.5811174  -0.2096829   1.7011914  -0.9850743   0.1711930
  -0.5933429   0.0037615  -0.1274987  -0.0363027  -0.6082222   0.8261399
  -0.9569765   0.5811903   0.1957279   0.0266597   0.1123640  -0.5003144
   0.3679810  -0.2413041  -0.0976391  -0.2720950   1.4387360  -1.2764886
  -0.0711414  -0.0054553  -0.0990823  -0.1029928  -0.9478521  -0.7346041
   0.9520371   0.5223094  -0.3766193   0.0295568  -0.1248625   0.2593169
   0.0179096   0.1418497  -0.1549315  -0.1350871   0.3308727  -0.5662420
  -0.0959434  -0.2882912   0.2381370  -0.2152588  -1.1171730   0.1977395
  -0.1382119  -0.9771121   0.3287568   0.2708677   0.0699177  -0.0746936
   0.0519801   0.2494386   0.1128693   0.4186319   0.6089427   0.3170301
   0.1590120   0.2643719  -0.2111072  -0.0054567  -0.1557512   0.6552958
   0.9551732  -0.3149351   0.6725339   0.0035641   0.3618747  -0.0111452
  -1.1512546  -0.4659499  -0.6901928  -0.2022722  -0.6958905  -0.0575621
  -0.1136143   0.1439756   0.1372885   0.1260361   0.3120466   0.4120311
   0.4703259   0.1820734  -0.2822208  -0.0519028  -0.0374942  -0.0780841
  -0.1474647   0.1330233   0.1963319   0.0516127  -0.4112049   0.1656752
   0.2225471   0.1199881   0.1890404  -0.0495301  -1.0186125   0.1443563
   0.6376352   0.1336167  -1.0108506  -0.1523046  -0.3162523   0.1647116
  -0.8359951  -0.1460371   1.1932435   0.2327387  -0.4025005   0.4047200
   0.2531400  -0.2461792  -0.1180316  -0.2098011  -0.0700040   0.5841316
   0.6446634   0.2497931   0.1409945   0.0217177   0.2107169  -0.2522500
   0.6731464  -0.8298285  -0.0830995  -0.7347891   0.2027012  -1.2158134
  -0.1730900  -0.0508949  -0.0191720  -0.3590369   0.0924961  -0.1166884
  -0.0197617  -0.2933133  -0.2719301   0.1917067   0.0172226  -0.2885182
   0.4762794  -0.2654514  -0.6840021   0.2196672  -0.3180399   0.1874339
   0.1935338   0.1174060   0.2763894  -0.2014413  -0.5538240   0.6865020
  -0.7959949  -1.2981343  -0.8175542  -0.0654662   0.0256577   0.3941285
  -0.1973083   0.0992305   0.3485059   0.4634204  -0.1894581   1.0740229
  -0.1279949   0.1297899   0.1963518  -0.8823369   0.5207645  -1.7431390
   0.1475419  -0.0479724   0.4796964   0.2477910  -0.1204180   0.0871821
  -1.6947200   0.5064596  -0.2160282  -0.8923929  -0.5109945   0.1358559
  -0.1903941   0.0641157   0.0914075  -0.3040612  -0.0419594  -0.3666706
  -0.2321879  -0.1890106  -0.2058442   0.0971456  -0.1142060  -0.0279135
   0.0853075  -0.6702928  -1.2523280  -0.4626506  -0.2975238   0.1867125
   0.1485700   0.1231819   0.3097090  -0.3845068  -0.0474937   0.2425934
  -0.0113217   0.4574143   0.2328431  -0.2330562  -0.0511932   0.1356851
  -0.1148342   0.0438196   0.6440890  -1.1705759   0.3104457  -2.0371422
   0.0580216  -0.1969090   0.1632219  -0.3027133  -2.0826131  -1.1821540
   0.1194027   0.4265074  -0.7376367  -0.0274960  -0.3879911   0.2412733
  -0.5297810  -0.2440051   0.4541381   0.1004947  -0.4917668   0.4154283
   0.2601825   0.0674323  -0.4365907  -0.2984087  -0.4097653  -0.0328328
   0.8730646  -0.0395991  -0.3122044  -0.2206407  -0.0188530   0.2391895
  -0.5207405  -0.2047056   0.5320416   0.9404320  -0.2693123   1.4262556
  -0.3898675  -0.1108434   0.0753366  -0.6788092   0.3316770   0.8413732
  -0.2776921   0.1601404  -0.5369329  -0.0148353   0.0539262  -0.0473196
   0.4081470   0.3893489   0.4472804   0.6754907  -0.0710866  -0.5958747
  -0.2804399  -0.1217217   0.3196728  -1.0141264  -0.2396199   0.9307804
  -0.0064261   0.7301564   0.4703078  -0.0879394   0.2693968   0.1610613
  -0.0087070   0.1021467   0.7090707  -0.0756971   0.2030950   0.2743987
   0.1023653  -0.1157591   0.0117089  -0.3999083  -0.3522466  -0.5681970
   0.8425801   0.5155856   1.0543053   0.0762207   0.3979601   0.4251702
  -0.2370992   1.9294090  -0.2484258   0.2116534   0.4648623   0.8260226
   0.1913309  -0.0292519  -0.0997865   0.2529041   0.1360738   0.2352062
   0.0968063   0.2586619  -0.7695655  -0.2564694  -0.3924394   0.0775895
   0.7155265  -0.6828038   0.4612900  -0.3700242   0.6354237   0.1251203
   0.0379508  -0.0628931   0.0756598  -0.0198397   0.0642268   0.2687232
  -0.2150582  -0.9541462  -1.2681843   0.0831967  -0.1109225   0.1016275
   0.3468240   0.1840262   0.5271807  -0.0536812  -0.0659001   0.5194173
   0.3085707  -0.1922691  -0.3261458   0.4480923   0.1168761  -0.7293754
   0.5724058  -0.4618734   0.0635132   0.2232101  -0.0187604  -0.1691826
  -0.0742249  -0.0726357  -0.1762523  -0.0381851  -0.8418559   0.3553401
  -0.0135293   0.2184139   0.0939013  -0.2237228  -0.8300038   0.0644394
  -0.0756722   0.0660548   0.0501236   0.1980010   0.0554307   0.0466773
   0.3625953   1.2436875   0.1616934  -0.0375905  -0.9999890  -0.1017378
  -0.0921345   0.1105804  -0.0868384  -0.0116591  -0.7000884   0.7323909
  -0.8668415   0.2603096  -0.6864652   0.1407962   0.1791623   0.0748631
   0.5332577   0.6342390  -0.8733268   0.0681333   0.2441283  -0.0020545
   0.1856897  -0.1988803   0.1167352   0.1839148   0.6880072   0.5482549
   0.5575642  -0.0974691  -0.2793409  -0.2107126  -0.1308940   0.1570626
  -0.0025693   0.1052267  -0.5227597  -0.9296369   0.3253592  -0.2264202
  -0.3719181   0.1910046   0.3097589  -0.6917270   0.5142830   0.1464677
  -0.3774545  -0.2763892   0.2163184  -0.1118572   0.2429214   0.1931145
   0.9314094  -0.1344470   0.9850603  -0.2017609   2.0382300   1.3343272
  -0.2529409   0.2304996   0.0382359   0.7703975   0.4128450  -0.2494580
   0.3403916   0.4313018  -1.0305468  -0.4674393   0.0867950  -0.2179402
  -0.2692957   0.0728824   0.7048455  -0.3469562  -0.3947472   1.2575350
  -0.2066754   0.1051187   0.2047340  -0.0596926   0.0974936   0.1559747
  -0.7218448   0.2725380   0.4601390   0.0309214   0.0303312   0.0544290
   0.0224099  -0.0628667   0.1144963   0.0846650  -0.1842488   0.0242852
   0.1494059  -0.2110650  -0.1036876   1.3677172  -0.0998493  -0.9817295
  -0.5898262   0.5341380  -0.3233885  -0.1683019   0.3920090  -0.1015768
   0.0691895  -0.1775592  -0.9620829  -0.4833813  -0.3293153   0.1001254
   0.0868884  -0.1893137  -0.0071912   0.5590504   0.8017801   0.3308792
  -0.1288020   0.2672064   0.6117248   0.0259164  -0.0495958   0.2034070
  -0.2453215   0.2654582  -0.5054800  -0.2492508   0.4283926  -0.7687865
   0.3321193   0.0566116  -0.0636315  -0.0856565  -0.2479891  -0.2195225
   1.4588139   0.9238645   0.3669375  -0.0953861   0.0101521  -0.1257174
   0.7587692  -0.5038101  -0.6492242  -0.1081218  -0.7292781   0.2684787
  -0.0904615   0.1078695   0.1397284  -0.8152131   0.0395592   0.4805888
  -0.7415239   0.1294390  -0.2912678  -0.0721122   0.1165747   0.0992668
   1.0936118   0.5535967  -0.9297521  -0.2410852  -1.2009557  -0.8404619
   0.1742926   0.1475501   0.3042447   0.4243851  -0.7618417  -0.3122005
  -0.1635567  -0.9100363   0.7653220  -0.0104810  -0.2734790   0.4971903
  -0.0325587  -0.1945611   0.6410148   0.1892028  -0.4464543   0.9478567
   0.0744844  -0.0150234  -0.0780052   0.1441722   0.1785545   0.1627668
  -0.1452230  -0.2244683   0.1454006   0.1179293   0.1054914  -0.0723164
   0.1088763  -0.4800358   0.2564228  -0.2457075   0.5634803   1.1011002
  -0.2121144  -0.1361715  -0.3107480  -0.6628463  -0.1781449  -0.6897296
   0.1781708  -0.2214111   0.0269153   0.0168537  -0.2246761  -0.0123885
   0.5793179  -0.5363858  -0.2608143   0.2197292  -0.1960182   0.4390514
   0.1844709   0.0023488  -0.1798823  -0.6365854   0.2831563   0.2860377
  -1.3126184  -1.5382187  -0.1596400   0.0651955   0.3397547   0.0518008
   0.0197901   0.6562571   0.1412795   0.3747534   0.3303944   0.0718216
  -0.0833376  -0.2591994  -0.1836190   0.6051815   0.1517332  -0.0278071
  -0.0388140  -0.2261828  -0.4644313   0.0135640   0.0760960  -0.2164664
  -0.3872314  -0.1529281   1.0386875   0.4479407  -1.3509049   0.1399801
   0.0700643   0.2424161  -0.0730094   0.0754585  -0.2552198  -0.1062377
  -0.4470028   0.4454230  -0.6006592  -0.1605755   0.1001960   0.0827261
  -0.1289509   0.2037945   0.9269742  -0.8142539  -0.0582097   0.7140838
  -0.0887411   0.2885032  -0.2106518   0.1135902   0.4820979   0.0191386
  -0.0827167   0.1519093  -0.0390409   0.1394914   0.0823499  -0.3984752
   0.5139785   0.0692798  -0.4564721   0.0955845  -0.0428204  -0.0408624
  -0.4327291  -0.1833961  -0.2480822  -0.8861434  -1.2407357  -0.2785484
   0.4875652   0.3237074  -0.9983720  -0.2033139   0.1367011  -0.2920346
   0.7695132  -0.1715507  -0.5895953   1.5932701   0.6225344  -0.8081528
   0.2717993  -0.3234624  -0.0003664   0.6505711   0.4910780   0.5525042
  -0.2337986  -1.2064278  -0.7923945  -0.3068605  -0.0373312  -0.0470625
  -0.6871528   0.4768668   0.1004535   0.1005983  -0.5044444  -0.1891143
   0.0593849   0.3029829  -0.3078370  -0.5603168  -0.2418178  -0.9039543
   1.0581966  -0.2612893  -0.4605154  -0.1377632   0.3364439  -0.2191582
  -0.4730620   0.1124727   0.1900964   0.3928905   0.3354515   0.0012138
  -0.0232733  -0.0032090   0.3936097   0.7658325  -0.3291452   0.2026990
  -0.2377641   0.0671442   0.8080300   0.0006869  -0.0082853  -0.0352381
  -0.2854193  -0.0045394  -0.5563332   0.2667265  -0.5874332   0.4359284
  -0.3802033  -0.1403247  -0.1112078   0.6404863   0.3069350   0.3754143
   0.8302840  -0.1256472   0.4845107   0.0824829   0.3762390   0.0356223
   0.2228347  -0.4531369  -0.2055295   0.2072744   1.1451103   0.2573044
   0.1180779  -0.0787946  -0.0654955   1.3085063   0.0268337   0.1712768
   0.0170199   0.2781087   0.7705323  -0.0981827  -0.1718949   0.1013062
  -0.4716771   0.9059361   0.9213755   0.1255156  -0.8262181  -0.4016470
   0.1786538  -0.0416348   0.1423611  -0.0896006   0.3106933   0.0439764
   0.5448311   0.2000139   0.1801870  -0.2877524   0.0913815   0.0449382
  -0.0261740   0.0421816   0.8120468   1.1168555   0.6047416  -0.2189117
  -0.1445241  -0.0930459  -0.3295687  -0.6183724  -0.2516241   0.0369429
   0.2949709  -0.4243216  -0.2394860  -0.0474382   0.2833032  -0.0214180
   0.0357138   0.1431246   1.8048043   0.0057825   0.0030581   0.2233872
  -0.1466095  -0.1603487  -0.2890235   0.1761627  -0.2855892  -0.4982473
  -0.4026301   0.0566799  -0.0561054  -0.1422216  -0.3479651   0.1097464
  -1.0252305  -0.1524742   0.5067252  -0.3642215  -1.5095316  -0.4245673
  -0.2354473   0.0072209  -0.0754414  -0.4326527   0.0884434   0.4981839
  -0.8660992  -1.1905641  -1.3568036  -0.1349495  -0.2276144  -0.1384984
  -0.5375322  -0.4422834  -0.0703888   0.5125126  -0.0621978  -0.1835159
   0.0276788   0.0540854   0.0643806   1.4501119   0.6919651  -0.0248353
  -0.4041761  -0.6655458  -0.2329884   0.4774649   0.0453014   0.3579054
   0.2732175   0.4757368  -0.6630284   0.6667454  -0.5566030  -0.9823307
   0.0855896  -0.4192377   0.0669559   0.2294719   0.0508733   0.2058620
  -0.5712252  -0.3792850   0.2642242  -0.1059697  -0.1839518  -0.1128608
   0.7476458   0.9032812  -0.2047151  -1.5869879   0.1611252  -0.1095136
  -0.1481562   0.2797208   0.1726646  -0.1062695  -0.0845109   0.1757117
   0.2900683  -1.0327426   0.0388878  -0.2517471   0.1341438   0.2492615
  -0.3049159   0.2441230  -0.1031595  -0.4271980   0.2716570   0.1329085
   0.0328753  -0.0248825  -0.0932246  -0.5315926  -0.8444068   1.0729554
   0.8336314   0.8737253   0.1976263  -0.1187666   0.1280748   0.0364248
   0.1400461  -0.1903370  -1.3255485  -0.0058713   0.2628300   0.1573697
  -0.2820960  -0.0651437  -0.1681235  -0.6754978  -0.0738927  -0.1104591
   0.6945843   0.5882064  -0.3613660  -0.1475686  -0.2315986  -0.1263115
  -0.2351251   0.0117318   0.1732613  -0.1674956   0.2821308   0.2168805
   0.0444680  -0.1390717  -0.1954527  -0.0728036  -0.1202456  -0.3080255
   0.2604969  -0.0747906  -0.5515817  -0.1472039  -0.1677013  -0.0883882
  -0.2989035  -0.0809057  -0.0852366   0.1593152  -0.2797617   0.2331587
  -0.1196614  -0.2300634  -0.1415775   0.4251497   0.0113228  -0.1391996
  -0.6190135  -0.0135226  -0.6552042  -0.3274597   0.2690211   0.0671027
   0.3703143   0.4322045  -0.3177523   0.2949346  -0.3887156   0.7042882
   0.2411749   0.0047615   0.0741609  -0.6969888   0.1591654  -0.6109043
  -0.3426689  -0.1614656   0.3136256  -0.2218754  -0.1295839  -0.3482745
   0.5765788  -0.2580165   0.4611228  -0.0000960   0.2754303   0.7058693
  -0.0767025   0.1384894  -0.0979796  -0.5755673  -1.0990568   0.0769913
   1.0168169  -0.1733111   0.6007617   0.3577022  -0.5101674   0.0420741
  -0.1773326   0.1644367  -0.0556726  -0.9574783  -0.5527129  -0.0801939
   0.1834880  -0.0444080  -0.1695607   0.2664603  -0.0706217   0.2610643
  -0.0882734   0.2884886  -0.1823304   0.0110812  -0.1117260  -0.0768970
  -0.2772364  -0.5632573  -0.2972876  -1.2074272   0.5765014  -1.0719236
  -0.2204390  -0.0312614   0.1929443  -0.5499740  -0.6553476  -0.0455776
  -0.0059301  -0.1724826  -0.2405566  -0.0555340   0.0279343   0.1917459
   0.6600141   0.0102157   0.9822317  -1.5340274  -0.2769366  -1.2639434
  -0.1761517   0.1513846  -0.1068015   0.3458370   0.0819187  -0.7320806
  -0.2377902   0.2479631  -0.2934905  -0.2126510   0.1196790  -0.1943280
  -0.3897853   0.7808786   0.0892807   0.5151655   0.3441128  -0.5897718
  -0.0229289   0.2165755  -0.0980029  -0.1267253  -0.3481428   1.3796938
   0.0454719   0.5541249  -0.9291635  -0.0626577   0.3962366   0.0390267
   0.3096733  -0.1278882   0.2323305   0.2047839   0.9209018   0.4141005
  -0.1609037   0.0918889  -0.0558960   0.3677543  -0.4731170   0.4836074
   0.4236253  -0.2441409   0.3278058   0.0899989  -0.0291812  -0.2932914
   0.6621414   0.7513067  -0.7056542   0.2570596   0.3158466  -0.5198986
  -0.0848933  -0.1372835   0.3132734   0.1124891   0.8889015   0.1077396
  -0.4373194   0.4154720   0.7567570   0.0715277  -0.0559888  -0.0652874
   0.1810907   0.1597127   0.4882723  -1.6338968   0.6020036   1.1701071
   0.0027207   0.2876963   0.0042974  -0.1627662   0.1466654  -0.0743939
   0.0945542   0.2124096  -0.3635672   0.0369066   0.2198603  -0.0213142
  -0.7765322   0.6996591  -0.3023007  -0.3789911  -0.5561857   0.4326642
  -0.0503165   0.1369151  -0.0747372  -0.3111735  -0.4086326   0.2054081
  -0.1309578   0.6353584  -0.1708435   0.0666183  -0.2714821   0.2554423
   0.1856563  -0.2551031   0.1543201   0.0419458   0.1145566   0.1051482
   0.1495984   0.0955958   0.3617585  -1.0439395   0.8474075  -0.2116685
   0.8276068  -0.1912222  -0.0861377  -0.2434285   0.0255257   0.0399595
  -0.8883247  -0.4765526  -0.7395691  -1.3187438   0.5866435  -0.1126277
   0.1997696  -0.0335849  -0.0063867   1.4463650  -0.4726084  -0.2818704
  -0.7681110  -0.7224349   1.0537001  -0.2365162   0.3401852   0.1840119
  -0.1630752   0.0465263   0.4721907   0.1585214   0.4120034  -0.0075859
  -0.0944590   0.1445881   0.0283809  -0.1982859   0.6753395   0.9852861
  -0.4945031   1.6112877  -0.2332180   0.0077974  -0.0290479  -0.1057200
  -0.2485794  -1.0150847   0.1423095   0.0684921  -0.2372071   0.5604983
   0.4260672  -0.1458295   0.0409156   0.2308321   0.4155769  -0.4522358
   1.1172858  -0.4135741  -0.2191913   0.1144148  -0.2614784  -0.1975743
  -1.0866469   0.3805103   0.5477393  -0.2767952   0.5189033   0.4627936
  -0.2253050  -0.3333165   0.1814788   0.3236474  -0.4015083  -1.0483175
   0.0480847  -0.2931190  -0.7935131   0.0328781  -0.1081517  -0.0591507
  -0.6767997   1.7942231   0.0811937  -0.0757582   0.5030867  -0.3988504
  -0.1017042   0.1491156   0.1719269  -0.9606649   0.2878287   0.4549983
   1.1761903   0.8145048   0.1863469  -0.2302728   0.0417018  -0.0593574
  -0.3003321  -0.3247271   0.4065599  -0.5535816   0.6319730   0.0070793
   0.3289029   0.1033839  -0.1104842   1.5733736  -0.3437838   0.4437771
   0.6507447   0.4246466   0.1042378  -0.1870434   0.3014240   0.0649815
  -0.0929709  -0.3067373  -0.2973803  -0.2604043   0.4634777  -0.6085850
  -0.0567318   0.0402554  -0.0934747   0.0201188  -0.5515233  -0.2986804
   0.6971930   1.1140996   0.8281422  -0.0998985  -0.0165600   0.0454983
   0.5802687   0.3794006   1.0269946  -0.1993666  -0.0903230  -0.1225007
  -0.1086992  -0.1241615   0.2194587   0.2614242   0.0795083   0.7991560
  -0.0612677  -0.0857064   0.2720992  -0.1761645   0.2022479   0.0486835
  -0.0580514   0.5613944   0.4520386   0.5710566   0.2445658   0.5402607
   0.1542066  -0.0421827  -0.3893119   0.8268096   0.5494290   0.7003354
  -0.0793532   0.2668452  -0.9352914  -0.2005871  -0.1914273   0.1264075
  -1.0861440  -0.6361919   0.1239354  -0.4893340   0.0057619  -0.7257823
   0.3269675  -0.0400935  -0.1224071   0.6111859   0.0523380   0.4058379
   0.5133329  -0.4733581   0.5560489   0.4030265   0.1812483  -0.0067511
   1.2941855   0.7493265  -0.8881408   1.0910601  -0.0826474   0.3568524
  -0.0100551  -0.1892592  -0.1346843   0.1862434  -0.0596748   0.0781182
  -1.1312168   0.2291965   0.7658039   0.1536547   0.3433875   0.0294141
  -0.2695654   1.2812022   0.0458105   0.0434186   0.2847027   0.0007483
  -0.2084729  -0.1757481   0.0719078  -1.2222585   0.4088534  -0.4240193
   1.1673894  -0.2443632  -0.8310131  -0.2166429  -0.1361436  -0.2477999
  -0.4239088  -0.7004476   0.2990108  -0.9176725   1.0881985  -0.6554222
  -0.1376083  -0.0666976   0.0033900  -0.9273393  -0.8445707  -1.8454395
   0.0725378  -0.7409211  -0.0485230  -0.0103839   0.1126812   0.0536054
   0.1880705  -0.2714713   0.5575097   0.3682274   1.0022475  -0.6048156
   0.2365348  -0.0144710  -0.2286821  -0.0612341   0.6565564  -0.0208753
  -0.7412574   0.2100603   0.5265779   0.2253439   0.2838393  -0.1706837
  -0.1158287  -0.8317891  -0.1629405  -0.6529475   0.7342995   0.8801120
  -0.0620383  -0.3855841   0.3922919  -0.7113492  -0.5179248   1.0168414
   0.4639733  -0.9756591   0.6039292  -0.0120339   0.1698064   0.1223336
   0.1873822  -0.1408572   1.2454548  -0.4707197   1.4190535   0.3422963
   0.1686570   0.2109849   0.0498626  -0.4313554   0.4024549  -0.7906532
   0.3747398   0.3274950  -0.1913004   0.1242117   0.3200133  -0.0592058
   0.1576048   0.6295329   0.1480257   0.5644064   0.1418148  -0.1512566
   0.1638231  -0.0974037   0.0379509  -0.0003017  -0.0949557   0.2492466
   0.1610764  -0.0975873  -0.0029280   0.2088344   0.0880769  -0.0091860
   0.3678855   0.1672622   0.2862604  -1.0131397  -0.2796812  -1.0798682
  -0.0750630   0.0378729   0.1647773   0.4612988   1.2569630   0.6572996
   0.4065402   0.6713777   0.7589357  -0.2031752   0.1485200  -0.1587304
  -0.2409270  -0.7544648  -0.2867459  -0.2176054  -0.1653592  -0.1639755
  -0.1003881   0.0626173   0.2402975   0.4290515  -0.3333939  -1.7105051
   0.0566327   0.1754632   0.2620178  -0.2017606   0.4075722   0.1865924
   0.1600221   0.2480448   0.1114432   0.6868391   0.5307944  -0.3653166
  -0.1837831  -0.1515665   0.1060397   0.0133477  -0.0986251  -0.3764566
  -0.4511658  -0.9565503   0.4904980  -0.1060176   0.2318906   0.0192727
   0.4393659   0.1947798  -0.1021142   1.0968031   0.5815437  -0.2436498
  -0.0450822   0.0661066  -0.1719652  -0.2484553   0.4928331   0.0382788
   0.1522185   0.7935580   0.9604042  -0.4531311  -0.0422899  -0.0500799
  -0.1200493  -0.1335879   0.2231052  -0.4852469  -0.4870846   0.8118741
  -0.1064838   0.0586527  -0.3971862  -0.6452346  -0.4443626   0.0089243
   0.0154687  -0.3033399  -0.3768358   0.0790239  -0.0548748  -0.0087370
  -0.0380995  -0.2279808  -0.3120007   0.1728258  -1.4123254  -0.5034614
   0.0707290  -0.0261282  -0.1929275   0.0835945   0.1895125  -0.2265689
   0.8676177  -0.2142068   0.1369712   0.0645103  -0.0875720   0.2150817
   0.1408439  -0.2100775   0.3998525  -0.5466663   0.3723439   0.0024448
   0.0977784   0.2951101  -0.2963735   0.2386972   0.7586411  -0.8843874
   0.0486292   0.9378065   0.0987260   0.0216718   0.0721681  -0.3453223
   0.5800697   0.5538977  -0.8268148   0.4622273  -0.7584174  -0.2426932
  -0.1804485  -0.2131737  -0.0260783   0.4001180   0.4539192   0.0951192
  -0.6663347  -1.2333938  -0.6410003  -0.1406217   0.3605674  -0.1996262
  -0.6543546   0.0088160  -0.4296233  -0.2559227  -0.5694904  -0.5123841
   0.1032584   0.0429406   0.0241826   0.7914449   0.2475848   0.0778014
   0.2781868   0.0655407   0.1859913   0.3125967   0.0144137   0.2825167
  -0.7967085   0.6426160   0.5779591  -0.3999866  -0.1629417   0.0912365
   0.3859157  -0.1278214  -0.1856200   0.3499606  -0.4451375  -0.4299803
   0.0926149   0.1230164  -0.3032219  -0.0341639   0.2114291   0.1009675
   0.2972943   0.1558113  -0.2509095   0.3198887   1.0284624   0.2917063
  -0.2440926  -0.1704358   0.1161785   0.8683428  -0.8586769  -0.8981920
  -0.1448186  -0.4957522  -0.3026328   0.0544813  -0.0493753   0.1425125
   0.4866645  -0.2667347  -0.4215669   0.4727071   0.0087082   0.4617906
   0.1959564   0.1420594  -0.0618251   0.0223658  -1.0014852   0.6220068
  -0.1321851  -1.0663131   0.4163944  -0.0913731  -0.1611486   0.3372565
   0.0401129  -0.8447187  -0.1429495  -0.9622389  -0.0358759  -0.0052873
  -0.2825877  -0.3043364  -0.3057943   0.9321423  -0.5716991  -0.6043942
  -0.5639230  -0.2746513  -0.0531428   0.1982137   0.1963652   0.0334681
  -0.3613247   0.0317788   0.6426249   0.6881064   0.3583293   0.0425017
  -0.2001932   0.2884647  -0.3174930  -0.2722803   0.5739809  -0.4963124
  -0.0134989  -0.1416610  -0.0365051  -0.0041153  -0.0880993   0.1127028
  -0.4360969  -0.0571143  -0.3079633   1.0664069  -0.5213104   0.5379162
  -0.3571299  -0.4883913  -0.1176817   0.0681358  -0.3692072   1.2727539
  -1.1312813  -1.1026501   0.3345814  -0.1957712   0.1679370   0.1478786
  -0.5244184  -0.2385358  -0.4043549   0.6526053   0.3765910  -0.2780807
   0.1768855   0.0721996  -0.0337627   0.5210940  -0.5333335   0.3641372
   0.5500912   0.5518888  -0.8913567  -0.0141646   0.1462787  -0.1207507
   0.5093190  -0.1143338  -0.6699001  -0.3728423  -0.3267970   0.5623783
   0.1756013   0.2977848  -0.0990769  -0.7377867   0.2057795  -0.2095680
   0.4652967   0.0334276   0.6572005   0.3838724  -0.0653683   0.2413115
   0.0937584   0.4777208   0.2365432   0.4983758   0.0703963  -1.1122591
  -0.2978209   0.0105094  -0.0115080   0.0788267   0.0740243   0.1963391
   0.1427393  -0.2611653  -0.0972229  -0.0681449   0.2887566   0.0942284
  -0.3291083  -0.1910123  -0.4244657  -0.0461200   0.5793186   0.5548915
   0.1887345  -0.0020946  -0.3941604  -0.3951593   0.0118201  -0.5363294
  -0.6906658   0.0664407   0.3884982   0.2981282   0.0672586   0.1270609
  -0.7623235  -0.5471074   0.9782394  -0.4874260  -0.1732509  -0.1764433
  -0.0345202  -0.0747004   0.0331234  -0.3627859   0.4147525  -0.1062172
  -0.0221463   0.6922129  -0.1774872   0.2249886  -0.1783671  -0.0795687
   0.9537483  -0.7170130  -0.5518480   0.3066846   0.4890647  -0.1545313
  -0.3336892   0.1867297   0.0976811   0.4458722   0.2672586   0.8751872
   1.3292859  -0.2542109  -0.8279126  -0.3164486   0.0047323  -0.0201840
  -0.8082414  -0.7646216  -1.5010633  -0.7621086   0.1009463  -0.2280396
  -0.1836160  -0.0032257  -0.3308708   0.6832026  -0.5716296   0.3550769
   0.0382434  -0.2344474   0.2009725  -0.1102021   0.1350849  -0.3650805
  -0.6159175   0.3196224  -0.8275925  -0.1609977   0.0010516   0.0652010
   0.1401903  -0.0281309  -0.0012014   0.4261795  -0.6401453   0.4246261
   0.7678176   0.2394486  -0.2956328  -0.1993439   0.0599169  -0.0510173
   0.1262745   0.2385819   0.1372354   0.4941519   0.9355915   0.3436463
   0.0571057  -0.0515454   0.1684365  -0.2210706  -0.4261803   0.2050858
  -0.2375906   0.1217107   0.4557765  -0.1509929  -0.0387041  -0.2197598
  -0.8733988   0.4012786  -0.5371638   0.0379593   0.3493005   0.6785133
   0.0931385  -0.2119978   0.1443267   0.1179687  -0.2387710   0.0377233
  -0.5837914   0.8895754  -0.1585136  -0.2112840   0.1271823   0.2540582
  -0.3704090  -0.5526731  -0.3073498   0.5344771  -0.7734539  -0.3253981
   0.0592917  -0.1858572   0.2439905  -0.5215305  -0.0442621  -0.7685063
   0.1096760  -0.5521209   0.7439049   0.1976873  -0.1087756  -0.1422575
   0.7685240   0.4017905  -1.0586490   0.5049937   0.6090489   0.9765137
  -0.3955503  -0.0166611  -0.1910953  -0.2408487  -0.2245730  -0.0721931
  -0.3350530  -0.1369569  -0.2199685  -0.1040603  -0.1889982   0.0864764
  -0.0544426  -0.0577217  -0.1997460  -0.3668511  -0.5811577  -0.3690781
  -0.0434391  -0.0633198   0.0244947  -0.4012060   0.3893858  -0.0840172
   1.2279023  -1.7824117   0.4037214   0.0718608  -0.2186082  -0.2368154
   0.1969591  -0.9301495   0.2581495   0.1299740  -0.2655276  -0.2776101
   0.1514354  -0.0183267   0.0396028   0.3029134   0.4091039   0.5948643
  -1.0725269  -0.3762423  -0.7805891  -0.0235089  -0.4127330   0.1939797
   0.4799074  -1.3028033   0.3467022   1.0262220  -1.0473599  -0.1592134
  -0.0328898   0.3627015   0.2490663  -0.6084242   0.0104912  -0.6998372
  -0.1674416   0.2863002   0.0348587  -0.0900071  -0.1247484   0.0961531
  -0.3474433   0.3622774  -0.2107557  -0.2013549  -0.9111553   0.0723684
  -0.1456353  -0.1000577   0.1952625  -0.3421786  -0.0212756   0.6228640
  -0.3167621  -0.5328215   0.0349992   0.0561347  -0.0863125  -0.5825031
   0.5403062  -0.6407541  -1.3981352   0.5871389   0.2465349  -0.1846508
   0.0131664   0.1785776   0.2402150   0.3257187  -0.7745558   0.0361804
   0.3816092   0.7298531  -0.5385374  -0.1423074  -0.1218828  -0.0197163
  -1.1122087  -0.3109593   0.2902947   0.2973386  -0.6367950   0.3502353
   0.1558616   0.0498332   0.0084235   0.8481117  -0.5336913  -0.5076668
  -0.3607612   0.3595349  -0.7394706   0.0303081   0.2489509  -0.0587775
   0.6030117  -0.4466412   0.2695460   0.2447793  -0.0471009   0.0834665
   0.0615486   0.1339528  -0.0106098   0.1558987   0.0265169   0.1475816
   0.0444494  -0.4971846   0.4621042   0.0211680  -0.1094138   0.1194763
   0.5299271   0.6786747   0.5499711  -0.4730502  -0.1417180  -0.5799450
   0.1544280  -0.1485188  -0.1450873   0.2215404  -0.6966037   0.0146268
   0.5588624   0.4988881  -0.1484409  -0.0985817  -0.0202360   0.4707214
  -0.5132834   1.9752977   0.1754363   0.5591978  -0.0563901   0.6289215
   0.0191412   0.1021117   0.2380999   0.4286537   0.2958276   0.9684193
   0.1551518  -0.2066953   0.0831858   0.0106205  -0.2220705  -0.0864675
  -1.2102008  -0.6285732   0.2309535  -0.0892778   0.1879288  -1.3434149
  -0.0666584   0.2784741  -0.1857414   0.4581528   0.9045149   0.6754535
  -0.5568677   1.0819968  -0.9460055   0.0885845  -0.1469944   0.0281981
   0.2130419  -0.1044128  -0.0050626   0.0319628  -0.1301667   0.2047983
  -0.3116490   0.3679483   0.1225056  -0.8873378   1.2334023  -0.3402441
   0.5324121  -0.4228073   0.5850171   0.0996774   0.0024250   0.2000828
  -0.3643004  -0.7083899  -0.2366754   0.0381570   0.2143984   0.1481832
   0.3792138   0.2963578  -0.0812994   0.9333231   0.4525727  -0.1622255
   0.7001802   0.2492148  -0.1051300   0.2123715   0.1544939  -0.1353630
   0.1290803   0.5814510   0.1961301  -0.1153542  -0.2885038  -0.2904739
   0.1259411   0.2382676   0.2485868   0.2117071  -0.0779538   0.0671149
   0.3600916  -0.3428047   0.8347898   0.1932457  -0.0999319  -0.3229277
  -0.6657996  -1.6255162   0.4075371  -0.7242172   0.7335225  -0.9340088
  -0.2365735  -0.1128930   0.2501702  -0.1197492   0.1402593  -0.5399513
  -0.0841653  -0.4707493  -0.2344045   0.0311856   0.1447686  -0.2544882
   0.0472103   0.2664885  -0.3261973   0.0755594   0.3684599  -0.4239273
   0.0277317  -0.1482576  -0.3534675   0.7754198  -0.4398785   0.1830327
   0.5642948  -0.2420908  -0.0272270   0.3092212  -0.0456612  -0.0624023
  -1.3080564   0.0606562   1.4957120  -0.3525999   0.4985555  -0.0731157
   0.0917795  -0.4300265  -0.4199736   0.6085888  -0.0658578   1.5842941
   0.3554894  -0.3564368   0.7273812   0.0546003  -0.0853922   0.2394212
  -0.2108011  -0.1229770  -0.5117475   0.1825135  -0.1096181   0.3768969
   0.2175303  -0.0310514   0.1152654  -0.4302788  -0.4711885  -0.4893892
  -0.2880939   0.2550626   0.7950999  -0.1130351  -0.2329044  -0.1130174
  -0.1569814   0.6911065  -0.6392865   0.4362427  -0.7178176   0.1426634
   0.0280824   0.2834009  -0.3528963  -0.0997236   0.1925632  -0.5449801
  -0.0529357  -0.8494055   0.4256629  -0.1715103   0.0539629  -0.0279578
   0.6370256   0.8096509   0.1063006   0.5682505   0.0746390  -0.0773842
  -0.0971413   0.0512220   0.0425576  -0.0153011   0.2800003   0.4626535
  -0.0522400  -0.0609281  -0.4326397   0.2571535  -0.0192648  -0.0402636
   0.4446188   0.4391498  -0.1766346   0.9777019  -0.2191245   0.3135746
   0.1102269  -0.1657892  -0.0738626   0.8044277   0.7831160   0.8596361
   0.5303972   0.0697064   0.9902912   0.0192014   0.0585654  -0.1500098
   0.5516126  -0.3095516   0.1559727   0.2225574   0.7484750  -0.0868341
   0.3288870  -0.0185598   0.0073509   1.0447253   0.1819579   0.4867708
   1.1860654  -1.1746132   0.1229852  -0.0584965  -0.0756628  -0.0228965
   0.6240349   0.8259819   0.0531984  -0.2656514  -0.1298415  -0.1687124
  -0.0600306   0.2253579  -0.3549445   0.1087473   1.2382363  -0.2038756
  -0.3349507  -0.0117593  -0.1287867  -0.1669851   0.0421756   0.1088937
  -0.5390017   0.1012755   0.0353055  -0.1819185  -0.3271145   0.2365471
   0.0658734  -0.0931214  -0.0809613  -0.2547580  -0.0496384   0.5142073
   0.1377350   0.2278700  -0.2633716  -0.0382409  -0.0095915  -0.2750000
  -0.1397959   0.0265476  -0.1314027   0.1863058   0.1381788  -0.6080277
   0.0225014  -0.3201755   0.1519115  -0.4835362  -0.2084202  -0.3248314
  -0.8191975  -0.0603927   0.7038769   0.1699298   0.0716880  -0.2897491
  -0.5188109   0.5678454  -0.1990257   0.0198333  -0.4289563  -0.8733192
  -0.0019072   0.0716081  -0.2123282   0.0974901  -0.5369165  -0.2259402
   1.4909300  -0.6106788  -0.8239574   0.1175832  -0.1877014  -0.2509816
   0.7388640   0.0203672  -0.8476208  -0.4091913  -0.3510226  -0.7535978
  -0.3383067   0.1500061  -0.0557851  -0.3070333  -0.1339441  -0.7840495
  -0.1053626  -0.2080445   0.1972805  -0.2302036  -0.0547144   0.0766347
   0.1052050   0.4853804  -0.4280275   0.2363816  -0.4505452   0.6091577
  -0.2306247  -0.2999113   0.3082220  -0.7267327  -0.2015071   0.3687830
  -0.7033295   0.0201266   0.2911672   0.2255241   0.4578045   0.1275076
  -0.6182429  -1.3920513   1.4935202   0.1566723  -0.4165374   0.7674550
   0.1223351   0.1575063  -0.0316895   0.3673752  -1.3980063   1.9170595
   0.5110804  -0.4983012   0.9829303  -0.1148136   0.3611658   0.1948416
  -0.8275980   0.2528586  -0.5363792   0.5413384   1.1691609   0.4324221
  -0.1778314  -0.1817148   0.1432875  -0.0728547  -0.2972615   0.0873521
  -0.3266592   0.1839509   0.0989000  -0.1368401   0.0154372   0.0206639
   0.8026678   0.0836758  -0.6250157  -0.6228886   0.0812836   0.1811402
  -0.1607969   0.3249017   0.0378000   0.9406480   0.4181105   0.4773388
  -1.1649793  -0.8294408   0.3598884   0.0503793  -0.0727812  -0.2098456
  -1.4250875  -0.7329160   0.6163732   0.4821172   0.1751877  -0.7089634
  -0.0438161  -0.0100812  -0.0203417  -0.0277261   0.1669080   0.7511603
  -0.9537117   0.1092551   1.2455664  -0.3110815  -0.2638059   0.1520969
  -0.1287395   0.0483936  -0.7898461  -0.9383155  -1.0587212   0.0510252
  -0.4097097   0.0101956   0.4777480  -0.2452576  -0.1345857   0.2447596
  -0.2578522  -0.1494319   0.2199870   0.0658322  -0.0550458  -0.1315785
  -1.2775787   0.5830326  -0.8308332   0.6852478  -0.4486745  -1.1596262
   0.1474747  -0.1927009   0.0830626   0.2820217  -0.1509609  -0.1110530
   0.3512605  -0.4270220  -0.1685653   0.4336765   0.1278806  -0.1514315
   0.7414761  -0.7404958  -1.0513260  -0.6110200   0.0143232  -0.1565916
   0.1928810  -0.0374742  -0.0037778   0.1572397   0.3261850  -0.5340256
   0.5597199  -0.0752253   0.0410076   0.0119810   0.0450238  -0.4136767
   0.3549330   0.8573366   0.4327927  -0.2286184   0.8181641   0.2525413
  -0.1762317   0.0312391  -0.3528947  -0.0955188  -0.2146132   0.0827488
   0.7516194  -0.8301338  -0.6378566   0.3383501  -0.0164778  -0.0361204
   0.5208388  -0.7969695  -0.5515445  -0.3759460  -0.8767693  -0.0031968
   0.0711404   0.0480707  -0.3520565   0.9650393  -0.1042897   0.0383181
  -0.2935136   0.0748285  -0.4813803   0.1406283  -0.0839028  -0.2353541
  -0.0154121   0.1049119  -0.5164419   0.1744579  -0.3070168   0.1797229
   0.0504805  -0.0230349  -0.0664946   0.9882735  -0.4689221  -1.2790711
  -0.9808847   0.4482406  -0.7811185   0.1314978   0.0893134   0.0439052
   1.5718325  -0.1661303   0.3919685   0.6013164  -0.0133473  -1.0505837
  -0.0267886   0.2378350   0.1601164   0.0219182  -0.2485351   0.8844371
  -0.1426764   0.4288686  -0.6061023   0.2540246   0.0959369   0.2313790
  -0.5977099   0.9987531  -0.5425665   0.4956979   0.0377471   0.7923277
  -0.2728648   0.1049486   0.0424633  -0.4088626   0.1346664  -0.1253176
  -0.0839223  -0.6403699  -0.0394540   0.2250795  -0.3561369   0.1047260
   0.3961189   0.1092442   0.6726060  -0.2446423  -1.2188860  -0.6443156
   0.1749459   0.2041381  -0.2316235   0.4588574  -0.2182423  -0.9010476
   0.6774169   0.2678196   0.3311244  -0.1481309   0.0480318  -0.2010602
   0.7559688  -0.3024262   0.4880926  -0.5174511   0.3589150   0.2307652
   0.1146686  -0.2023472  -0.1195963   0.2613948   1.2770585   0.2359348
   0.2373022  -0.0611759  -0.0379061  -0.0381173   0.4105974   0.0830882
  -0.1257571   0.4254244  -0.1821854  -0.1640014  -0.1072284  -0.4233568
   0.0267667  -0.0624746  -0.1550238  -0.2995905   0.2153570   0.2002260
   0.3622628  -0.1757741  -0.1933506  -0.3652703   0.0556107  -0.0166812
  -0.9887479   0.9514939  -0.1696200   0.2662806  -0.3206798   0.2977291
   0.0677422   0.0213008  -0.0478539   0.7149365  -0.0139160   0.3073423
   0.1455492   0.4719309   0.6606175   0.0267741  -0.0861845  -0.4415002
   0.8235687  -0.2013203   0.3822194   0.0356366  -0.3956953  -1.9054071
  -0.4777881  -0.0182841  -0.1273579   0.0018174   0.1721663  -0.2354681
   0.5687008  -0.3064662   0.2849074  -0.3116662   0.1441115  -0.1778895
  -1.1280651  -0.0456964  -1.8870171   0.7056597  -0.0141058   0.4691418
   0.0103361  -0.1054516   0.1315113   0.3654700  -0.2561104   0.2243921
   0.1898826   1.0385774   0.4241152   0.1099069   0.0518583  -0.1235213
   0.4713362   0.0247774   0.5458854  -0.6207330  -0.2564446  -0.7020387
  -0.1108792   0.3160766  -0.2781659   0.6765803   0.6229915   0.0305829
  -0.3282665  -0.4301739   0.2323378   0.0062822   0.0141781  -0.0310929
   0.7087222   0.0583049   0.4351323   0.2124716  -0.4618904  -0.3444704
   0.0621672   0.2620171   0.3652638  -0.2552921   0.3550611   1.1399747
   0.9742707   0.2990973  -0.2463215   0.3360672   0.2807460  -0.0983732
   0.9422212   0.0262914   0.4860800   0.7183502  -0.1043807   0.3860001
   0.1587111  -0.1218785  -0.0519431   0.3530085  -0.3544288   0.2739303
  -0.6259518  -0.1629737  -1.0261095  -0.1564641   0.0297974   0.0122843
  -0.4252753  -1.0236786   1.2616694   0.6178907  -1.3256249  -0.6254936
   0.1052053   0.4050578   0.3208890   0.9327363  -0.7656156  -0.0028655
   0.3912926  -0.5299644  -0.3130264  -0.0346022  -0.0686673   0.4185838
  -0.6853842  -0.0093975   0.2429091   0.3263348  -0.1282101   0.4976988
  -0.5005950  -0.3751504  -0.1422914  -0.0131285   2.2779910   0.6130675
  -0.6202591  -0.7160697  -1.6828804  -0.0645029   0.0798093  -0.0284579
  -0.4686667  -0.2183008  -0.4809158   0.3548991   0.4598110   0.3448449
  -0.0039294  -0.3523317   0.1879274  -0.2380952  -0.4434983   0.5866554
   0.5270172   0.0665318   0.1480935   0.2428902   0.0861005  -0.0686403
   1.6037391  -0.2021229   0.2295579   0.4051511  -0.5489720  -0.9050712
   0.0437313   0.3694802   0.0875779   0.1879901   0.8578953  -0.1795779
  -0.5473288  -1.1911669   1.4125007   0.1326268   0.0211098   0.0937404
  -0.0884934  -0.4119926  -0.0084819   0.1919969   0.0686673   0.3040086
  -0.2173089  -0.1509161   0.0704141  -0.5924169  -0.4012518  -0.0076425
  -0.6732925  -0.1645135   0.0083616   0.0791600  -0.2892030  -0.3556521
  -1.1724661  -0.0894936   0.9844059  -0.4202088   0.4066826  -0.1019157
   0.2573086   0.1289922  -0.0799294   0.2601876   0.1476149  -0.0779159
   0.8826673   1.1170603  -0.6748543  -0.0392139   0.1519467  -0.1013965
  -0.1782992   0.3994925   0.0443983  -0.0659989   0.3157218  -0.2798983
  -0.1190661  -0.2895517  -0.2692101   0.3573706  -0.8712162  -0.3541669
  -0.1085965   0.2526841   1.5939922  -0.0390918  -0.0560157   0.1152009
  -0.3854033   0.7192993  -0.5220905  -0.0072987  -0.0294472   0.2546526
   0.0187136  -0.0617952   0.0879968  -0.7901454   0.0997725  -0.4895832
   0.1557289   0.5165921   0.6953074   0.0244248   0.2211017  -0.0109496
  -1.0410155  -0.6388249  -0.4948569  -0.2346163   0.0287893   0.0300905
  -0.2436833   0.0882049  -0.0580243  -0.8904032   0.2023054  -0.1774177
  -0.1686574   0.4442668   0.8774391  -0.0113698  -0.0273331   0.0251742
   0.1615423   0.0060672   0.3957244   0.3849318   0.4621615   0.2289629
  -0.0943853  -0.3293240  -0.0548940  -0.6619524   0.2256489   0.0722172
  -0.3230954  -0.2328383   0.5994246  -0.0474555   0.3073854  -0.0390279
  -1.0063329   0.0416925  -0.0479967   0.1124257   0.6947440  -0.1272221
  -0.3138225   0.0841580   0.1927220  -0.2038133  -0.3362096  -1.1188248
  -0.6591433  -0.0961771   0.4512715   0.3240747  -0.1754193   0.0877593
   0.6092319   0.0740521  -0.7414337  -1.1606997   1.6360543   0.5307119
   0.1102575  -0.2039465   0.1682409   0.6486763   0.3514404  -0.2054036
  -0.1080478  -0.2811197   0.0302486  -0.2730927  -0.0301290  -0.0850497
  -0.4429627   0.8504883   0.4851130  -0.1454031   0.2086548  -1.3033998
  -0.1837799   0.0665992   0.0556445  -0.5027426  -1.0759586  -0.2274278
  -0.9163025  -0.7420693  -0.3191096  -0.3018193  -0.0164909   0.0226758
  -0.1359130  -0.4148289   1.0613483  -0.5868971   0.3036709   0.0575656
  -0.0349194   0.4271509  -0.1085641   0.5677897  -0.1277283   0.0794864
  -0.7362632   0.1039979  -0.4456958  -0.0686565   0.2980026   0.1508765
  -1.0379225  -0.0756596  -0.5237407   0.6901438   0.9199043  -0.8500275
  -0.2631441  -0.0248543  -0.0212876  -0.3198049  -0.3177248  -0.0300647
  -0.0473605  -0.0103537   0.1220875   0.0391949  -0.0250832  -0.1639099
   0.4233879  -0.4520176  -0.1212130  -0.4264655  -0.3090557  -0.5382082
   0.0160994   0.2586929  -0.2682619  -0.8924225  -2.2011973  -0.3115324
   0.4118190   0.8021288   0.3069494   0.2393118   0.0560407  -0.2280504
   0.1882060   0.1973002  -0.0663693   0.2007876  -0.0870986  -0.1675846
   0.1249733  -0.0225445  -0.2611940   1.2408975  -0.9466816   0.5941563
  -1.0770312  -1.0587280  -1.4180575  -0.0359228  -0.1880392   0.0315348
  -0.1368768  -0.2677416   0.5947574  -0.2123385  -0.5031687   1.4999594
   0.1342082   0.1281463  -0.2754848  -0.1652312  -0.4996741   0.1166897
   0.2158483   0.7711623   0.7112329  -0.1813043   0.1623614   0.0318521
   0.0721419  -0.0919585  -1.0001994  -0.0794909   0.0127548  -0.3235171
  -0.0828310   0.0388178   0.0706580  -0.8480004  -0.0828208  -0.2976308
  -0.6883230   0.0332556  -0.3753290  -0.0285480  -0.0022462  -0.1225505
  -0.0172943  -0.5087249   0.1177254  -0.0861612   0.0754320  -0.1860204
   0.0221435  -0.1203737  -0.0412479   1.1248708   0.0703359   0.9706437
  -0.8862677   0.6395778  -0.7061989  -0.0381315   0.0594813  -0.0121946
   0.0814502   0.4001987   0.4142139   0.0461710   0.5988370   0.0467599
   0.1538903  -0.0898389   0.0652761  -0.5949572   0.0142201   0.9414652
  -0.2064969   0.5713464  -0.5252421  -0.0940972  -0.1592244  -0.0411359
   0.0774613   0.1408482  -0.3585749   0.1846857   0.4808666  -0.3981081
   0.1276816   0.1943851  -0.2389368   0.0345913   0.6479763   0.2277855
  -0.4992762   0.1772907  -1.3277178  -0.0335153   0.0554644  -0.2246041
   0.4531787  -0.0798378  -0.0625255   0.3375881   0.4935798  -0.1164726
   0.1668407   0.0184760  -0.0462233   0.3792378  -0.1238175   0.0719288
   0.0028784  -0.2477499   0.1323821   0.2581218  -0.0480095  -0.0473141
  -0.5692404  -0.0597005  -1.4281043   0.6413932   0.5750011   0.0997509
  -0.2073293  -0.2094989   0.0475008   0.1581497  -0.0901796  -0.1604148
   0.5790931   0.4946562   0.3709532   0.2139981  -0.1012608   0.2936034
   0.1707180   0.3075405   0.1724966  -0.3198486   0.9664072  -0.5518423
  -0.0439960   0.0294174  -0.0019530   0.4937300  -0.8516358   0.2771114
  -0.0617915  -0.3832114  -1.0649196  -0.2188671   0.1032345   0.0498117
   0.0914296   0.8291538   0.5633577  -0.2384673  -0.1700215  -0.3578493
   0.1505948  -0.0305223   0.6229390  -0.1733283   0.2408393   0.2407769
   0.4440273  -0.2536707   0.6358963   0.0923595  -0.0255344  -0.3317766
  -0.0984081  -0.4044068  -0.2320582   0.0796577   0.6470371   0.3817277
  -0.0276304   0.0837834  -0.0200948   0.0262962   0.0825606   0.0323460
   0.0377401  -0.0032711   0.0384600  -0.4473811  -0.2703539  -0.1080452
  -0.0981778  -0.3677487  -0.0295605  -1.1356364  -0.1195101   0.0933504
   0.0503780  -0.1727498   0.3052378  -0.9206988   0.0367626   1.0258741
   0.1826320   0.5646565  -0.3917428   0.0615861  -0.1389907   0.0981955
   0.6485655   0.1781365  -0.1395507  -0.5708714  -0.6119749   0.1400393
  -0.1456381  -0.0634943   0.2189860   0.0116975   0.0612230   0.1958903
  -0.2688834  -0.4911491   0.2776351  -0.0525417   0.2175408   0.0723564
   0.2991623   0.7627012  -0.1776082   0.3768093  -0.0721129   0.5284239
   0.3474280  -0.2571971  -0.1554796  -0.0689742   0.2026168  -0.1853753
   0.6369223  -0.2408496  -0.0499770  -0.1754177   0.2371576  -0.3320200
  -0.8129474   0.3776578  -0.3815459  -0.7229276  -0.6757395  -0.0696669
   0.0643331   0.1978957   0.0924947   0.0582316   0.3616161   0.1332256
  -0.3354974  -0.5194250  -0.1161392   0.0478102   0.2954243  -0.0091180
   1.5828921   0.0878290   0.1266757   0.0942704  -0.5601049  -0.6680021
   0.1120448  -0.3860679   0.0531245  -0.1097515  -0.1075171  -0.2894866
   0.1671277  -0.6701829   0.1320510   0.1471489   0.0540049  -0.3040827
   0.0224192  -0.8854363   0.4726337   0.1028893  -0.6803607  -0.0250389
  -0.2008345  -0.2128729   0.3394297   0.4239695  -0.9574808  -0.2047783
  -0.9574025   0.2457569  -0.3500965  -0.2785283   0.2914905   0.0742530
   1.1826724   0.4713404  -0.1429753   1.6056677   0.5145524  -0.2009178
   0.0966263  -0.0862919   0.1114614  -0.9007740  -0.1781664   0.1718238
   0.1893711   0.6287071  -0.2042882  -0.0538134  -0.3723317  -0.2036092
   1.2229027  -0.7062496   0.3397458   0.0679388  -0.8232318  -1.6510999
   0.1393096  -0.1383188   0.1553579  -0.0288179   0.3762523   0.8448268
  -0.2548938  -1.1300926  -0.5063059   0.0044562   0.0874642  -0.4865259
   0.0325658  -0.0224521  -0.2544969   0.4402002  -0.3609825  -0.1098278
   0.1940156  -0.3214908   0.3659977   0.3212094   1.4331701  -0.0343073
   0.1447602  -0.1049055  -0.9312244  -0.0390588   0.0694865   0.0149323
  -0.8791763   0.7247955  -0.1893731   0.8270705   0.6488139  -0.2575710
  -0.0477179   0.0158196  -0.0624561  -0.6940009  -0.8549840   0.0922714
   0.5762991  -0.4524265  -0.3261669  -0.2536276  -0.1881368  -0.0384153
   0.0502306  -0.0292689  -0.3241732   0.1161388  -0.1716779  -0.5440002
   0.1218566   0.0172795   0.2159075   1.4126240  -0.0044686  -0.3877850
   0.0894598   0.1863937   0.4687961   0.0365559   0.4059222  -0.1801651
  -0.7501839   0.6110502   0.5327661   0.2598600  -0.6779695   0.5851568
  -0.0904724   0.3711459   0.0087393   0.5583801  -0.5502361   0.9238852
  -1.6013850   0.7227652   0.5884897  -0.0767170   0.1088401  -0.1412529
  -0.4619673   0.4871606   0.0390950  -0.8481024   0.7015490  -1.0218575
  -0.1891085  -0.2539640   0.0289631   0.0932805  -0.0183057  -0.6854185
   0.4588486  -0.6920460   0.3434852  -0.1993576  -0.1691768   0.0683437
  -1.0742537   0.2776869  -0.1979329  -0.0731272   0.0282003   0.7825835
   0.1663350  -0.5541405  -0.1161690  -0.1148205   0.1412170   0.7414151
   0.0477630  -0.4783185  -0.2267705  -0.0796467  -0.1836678  -0.0045741
  -0.3144249  -0.4507306   0.4828568   1.0287648  -0.1982934   0.0017423
  -0.1539395  -0.0153057   0.1426535   0.1058312   0.1384403   0.4381260
  -0.0303155   0.1071768   0.1832008   0.0800015   0.1333296  -0.2170176
  -0.5734726  -0.4316907   0.3346227   0.5801917  -0.5839908  -0.7818785
  -0.2026543  -0.0963069  -0.1009802  -0.1170272   0.0318278   0.0684332
  -0.4253823  -0.1267998  -0.0524980  -0.0994453   0.1180045   0.1709414
   0.0907660   0.0230192   0.8342947  -0.3554309  -0.2480254   0.2269048
   0.2600731  -0.0570668  -0.0743348   1.0764449  -0.8811602  -0.4319333
   0.5132940   0.0681919   1.0595442  -0.0777970  -0.0426403  -0.3138904
  -0.0628124   0.0633180   0.2717724  -0.9654646   0.6686144  -0.7123259
   0.4645050   0.1277906  -0.2796808  -1.2896418  -1.1743948   0.3619334
   0.2564063  -0.9805444   0.2625482  -0.3127118  -0.2374546  -0.0047502
  -0.8469196  -0.1479752  -0.6258759  -0.4283299  -0.7080559  -0.0642908
  -0.1895604   0.3005610  -0.3539792  -0.0369941   0.2869968  -0.3672806
  -0.0253358   0.2643112  -0.5672685   0.0201806  -0.1182359  -0.2883128
   0.2256571  -0.6051959  -0.2668024  -0.3423233  -0.0585901   0.0927001
   0.2338938   0.2607563  -0.0683208   0.1513465  -0.1742592  -0.5502288
   0.2952851  -0.9914865  -1.0468652   0.0170760  -0.0216466  -0.0378005
  -0.5994000  -0.7156843   0.9394228   0.0516871   0.0611056   0.0889422
  -0.1080543  -0.0040226   0.0677679  -1.0743955  -0.0834834  -0.5505666
   0.9615442  -0.1397526   0.1083200  -0.3185963   0.0633560  -0.0765094
  -0.5665381  -0.2706568   0.5323029  -1.4671611  -0.4331888  -0.2600759
  -0.0198743   0.0419402   0.1168977   0.2940488   0.8796221  -0.1509343
  -0.3183755   0.0613871   0.0706388   0.0617851   0.1025412   0.0175971
   0.3571518   0.3295197  -0.1169325  -0.3079775   0.4997967  -0.3819198
   0.0749169   0.1969135   0.1118344   0.5308593  -0.8643852   0.2080084
  -0.3602641   0.5970755  -0.3294401   0.1011813   0.2257885  -0.0209376
  -1.7482406   1.1452563  -0.6218166   0.1472871   0.3940570   0.5567964
  -0.3647758   0.0487983  -0.2996576  -0.5789818   0.0314937  -0.3636507
  -0.8563791  -0.1594547  -0.1412690   0.1906933   0.0385774  -0.0674531
  -0.0669640  -0.3628542   0.6057720   0.3682773   0.3049015  -0.3583074
   0.1311182   0.0272963  -0.0609565  -1.0529867   0.8456584  -0.4819567
  -0.5354092   0.7128464  -0.5473226  -0.1127688   0.2127652  -0.2024990
  -0.0145385  -0.1678326  -0.0882091   0.0688873  -0.4263701   0.0098281
  -0.0375887   0.1278419   0.0830559  -0.0699042   1.2028416  -0.2702223
   0.0518450  -0.7105760  -0.7278557  -0.0140244   0.2282316   0.0020290
   0.7518040   1.1355179  -0.2105790  -0.5047516  -0.1418726   1.0801447
   0.2415993  -0.1507316  -0.0825998  -0.3276523  -1.3068603   1.7370483
  -0.0220999  -0.7348394  -0.4063424  -0.2240555  -0.0168274  -0.1232213
  -0.3338919   0.5437476  -0.6607512   0.2875225   0.1256764  -0.1853546
   0.0748740   0.0714224  -0.1435030   0.1843414   0.0590793   0.1328575
  -0.0684541   0.4126546  -0.1932653  -0.0535632   0.1915591  -0.0406097
   0.7621273  -0.2643791   0.1604426  -0.5439939  -0.2829940  -0.3245716
   0.1135262  -0.1143660   0.1594391   1.0370810   0.3262246  -0.1649005
  -0.1512084  -0.1659877  -0.0944811   0.1204737  -0.2081045  -0.3096210
   0.4743596  -0.0107286  -0.2296305   0.0176995   0.0640356  -1.0764813
   0.1284819  -0.2783007  -0.1147103   0.3061936   0.3407267   0.0938624
  -0.2021806   0.2827398  -0.8539284   0.0247795   0.0284302  -0.1365866
  -0.2948034  -0.9760686  -0.0237789  -0.1193247  -0.8953119  -0.1621686
  -0.1511004   0.1155680  -0.0811290   0.1389982   1.0490559  -0.7221741
  -0.3924146  -0.2458205   0.0435143  -0.1895243   0.0231814   0.1864263
   0.1711164  -0.2520599   0.0961957  -0.1913310  -0.3693443   0.1544178
  -0.1315565  -0.3113592  -0.1697483   0.1384791  -1.0436591  -0.1371908
   0.4662365   0.0440560   0.0296835   0.1819608  -0.2652765  -0.1778426
  -0.3382152  -0.0492580  -0.0720082  -0.0124983  -0.6567083  -0.6021473
  -0.0208661   0.2973983   0.1278821  -0.2129600   0.8462269   0.8733201
   1.0676817   0.2046878   0.3235442   0.1884181  -0.0987339  -0.1256443
   0.2423511  -0.1974245   0.0273215   0.1459279  -0.0290419  -0.0986159
   0.1114864   0.0731787   0.3604673   1.5447735   0.5121224  -1.6980945
  -0.1797469  -0.0627918   0.8854638  -0.1244401   0.1396725   0.0130536
   0.0776198   0.0747178   0.7097676  -0.0997124   0.4751817  -0.0463355
  -0.0080524  -0.0498483   0.2428614   0.5211576  -0.6054781  -0.8681342
   0.2882397   1.4105932  -0.1471725   0.1520462  -0.1423692   0.2381342
  -0.1341028  -0.6499795   0.3302514  -0.0069837   0.0728923  -0.0778964
   0.1822632   0.1058926   0.0638077   0.4543016  -0.2683495  -0.8548025
  -0.1731935   0.2997166  -0.0948668   0.0436174  -0.0567465  -0.0636889
   0.9064756  -0.1566722   0.7854983   0.2610987  -0.3011760   0.3251168
   0.0622129   0.1067852  -0.3219120   0.7379075  -0.6366049  -0.3385616
   0.3459966   0.3424327   0.1799533  -0.0391872   0.2016494   0.0135510
   0.1867571   0.7019426  -0.2603926  -0.7750385  -0.6877757   0.4970412
  -0.3283880   0.1582131   0.1407001  -1.1380013   1.1310561   1.0254861
   0.0439802   1.6086442  -0.4344963   0.2613962   0.2116856   0.0215319
   0.4078532   0.2143169   0.0177084   0.1066827   0.3850171   0.1648633
   0.0444404   0.0208636   0.2418459  -0.0927538  -0.3519664  -0.0476118
   0.1681399   0.9732183   0.2148889   0.0741902   0.0443996  -0.0520057
   0.0652395   0.5071411  -0.2866443   0.0869079   0.1176418   0.2380807
   0.1205861  -0.1866541   0.0847627   0.1946290  -0.1788244  -0.0486404
  -0.2730371  -0.1719898   0.7412480   0.4188096  -0.1083403  -0.2271636
   1.4087186  -0.2531208  -0.0330347   0.2529275   0.6512222  -0.6145626
   0.0603231   0.1988893  -0.1352696  -0.1697614   0.4997981   0.0439232
   0.2812424  -0.2287273  -0.0772047   0.0553988   0.0401545  -0.1173134
   0.6154332   1.5923147   0.3331625   0.1305917   0.4378995  -0.5023403
  -0.0140137  -0.0121472  -0.0743664   0.1595364   0.0314115   0.4341310
  -0.2975714   0.3856684  -0.1277025  -0.0230473   0.1130713   0.0301419
   1.5466973  -0.0088982   0.4722464  -0.3002705  -0.1425681   1.5766369
   0.0937777  -0.3927201   0.1292293   0.5270567  -0.5952380   0.3325924
  -0.2292369  -0.9071457  -0.4153924   0.0179760  -0.0150578   0.2693197
  -0.1207054   0.3286543   0.0638014   0.1772603   0.9033654   0.2462053
   0.1787453  -0.1602786  -0.2558045   0.3479765  -0.3095828   0.3251074
   0.0813343   0.0939304  -0.2619047   0.0968455  -0.1230653  -0.1095911
   0.0952409  -1.1869593  -0.8899977  -0.2953306   0.1108120   0.3429221
  -0.2305063  -0.1497271  -0.0625411  -0.5639151  -0.2771689  -0.3695118
  -0.2467943  -0.3784111  -0.8187536   0.0378764   0.2135131   0.1314155
   0.5499143   0.2454834   0.8752188  -0.0771274   0.4320616  -0.0387002
  -0.0603583   0.4348634   0.0503552   0.3750448   0.3197689   0.0711542
  -0.2346177   0.2157231   0.2375438   0.1065091   0.0900819  -0.2880804
   0.1569510  -0.1039932  -0.4395087   0.1636924   0.8064913  -0.3157952
  -0.3645220   0.1843232  -0.1370056  -0.4475167   1.1324166   0.5461035
   0.0322168  -0.4575816   0.0902778  -0.1269975  -0.1515683  -0.1703690
   0.0158741  -0.3248674  -0.1432614   0.1829079   0.0203419  -0.3975492
   0.1569938  -0.1429661   0.0392598   0.4549802   1.0186216   0.5725680
   0.4052875  -1.1508802   1.0139889  -0.2930597  -0.0514566   0.0709290
  -0.4602198  -0.6936122  -0.0194441   0.2588567  -0.4378469   0.0074823
  -0.2944571  -0.0799068   0.0865479  -0.2677787   0.1536889  -0.8790441
  -1.2096821  -0.5282233   0.2360476   0.2060856   0.2194677  -0.2053787
  -0.3579473  -0.0379198  -0.3918521   0.5782581  -0.2185444  -0.2744202
  -0.1578029  -0.1094566  -0.1730137  -0.7954533  -0.2025383  -0.3803046
  -0.4483108   0.4067001  -0.6584617  -0.0496485   0.0252555  -0.0336684
   1.2304272  -0.9336552  -0.3546960  -1.0373501  -0.3009155  -0.2824411
   0.0127852   0.1418264  -0.0835195   0.2445957   0.0867500   0.1619398
  -0.1542230   0.1257686  -0.0079319   0.0378382   0.4866334   0.2759805
  -0.2254006   0.2035557   0.3331745   0.6308384   0.3631629   0.4549129
   0.0451895  -0.0358068  -0.3676495  -1.1103390  -0.9712900   0.3010608
  -0.4165086  -0.1119865   0.1302251   0.1821060   0.0847761  -0.0052505
  -0.3735220  -0.2951770   0.1340953  -0.0998566   0.0375819  -0.7116902
  -0.1180366   0.1787534  -0.2268905  -0.8172196   0.2274918  -0.2589167
   0.2932612  -0.5033510  -1.4447176   0.0324351   0.2818712  -0.1185465
  -0.9273473   0.7886286  -0.0925515  -0.5817159   0.7252773   0.3950499
  -0.1014101   0.4817327   0.0308324  -0.4128580   0.0331929   0.6543308
  -0.7310671  -0.0834342  -1.0306185   0.4384983   0.1823883  -0.0740357
   0.8656153  -0.4134441   0.5491374   1.2087577  -1.7162593   1.2868647
  -0.2692945   0.1145840  -0.0829119   0.3793702   0.3034273  -0.0017407
   0.0762539  -0.0860623   0.1093078  -0.1144834  -0.2442177   0.0226463
   0.0060078  -0.2088436  -0.1372915  -0.1121522  -0.2313755   0.1800877
   0.0626894  -0.0825268  -0.0741842   0.1556971  -0.2666930   0.1017642
   0.3650143  -0.0404301  -0.2399121   0.0599014   0.1910123   0.0883167
  -0.7463124  -0.2468276   0.9583392   1.1024640  -0.9948803  -0.0884380
  -0.1126367  -0.2030913  -0.2535452  -0.7788673  -0.4943813   0.3511188
  -0.4626985  -0.0706110   0.1577014   0.2423745   0.1420289   0.1918902
  -0.9857747   0.8076872   0.0543346   1.1228540  -0.3482975   0.5269757
  -0.4447131   0.0239976  -0.2653759   0.5441745  -0.1503516  -0.7623178
  -0.2180102  -0.3400266   0.7436099  -0.3057767  -0.0005636   0.0617635
  -0.3273912  -0.0331107   0.2889959  -0.4913313   0.8753223  -0.0494739
  -0.0789075   0.2713402   0.0565369   0.7343868  -0.2111684  -0.0952509
  -0.2339529   0.6231196   0.4651448  -0.3882515  -0.0293938  -0.3054666
  -0.4755137  -0.4028889  -0.4122141  -0.0709129   0.1312118  -0.1512908
  -0.0667284   0.0991044  -0.2203915   0.1503561   0.0307915  -0.8776320
  -0.2716542  -0.3767260  -0.0792598  -0.0542037   0.0076021   0.0729218
  -0.0877673   0.4576070  -0.4996610  -0.6334953  -0.0681497  -0.4931085
  -0.0420795  -0.1521819  -0.2846307   0.4464096   0.5903733   0.7622130
  -0.2968284   0.0402059  -0.4549561   0.1236685  -0.0516834  -0.1379067
   0.2920331  -0.2741414   1.0329538   0.2177993   0.5732715   1.2442098
  -0.1774220  -0.1913748  -0.2320489   0.7132661   0.7337275   1.7919316
   1.1034800   0.8745522   0.4266476  -0.3451088  -0.0657531  -0.2063133
  -0.2199525   0.2121367  -1.2575889   0.3803212  -0.0865509   0.0476251
  -0.0837043   0.2353512   0.2330514   1.0647722  -0.3643656   0.5756495
  -0.3285716   0.0237383  -1.5010542  -0.0842346  -0.0631313  -0.1488339
   0.4266951   0.2601064  -0.4907769   0.0939636  -0.0552498   0.0613885
   0.1347617   0.0560238  -0.0585152  -0.0277848  -0.6602586   0.7890812
   1.0545163   0.6892541   0.1829267  -0.0546388  -0.2424414  -0.0633301
  -1.1590715   0.2870248  -0.5104121  -0.4030175  -0.2046041   0.3345172
  -0.1382948   0.2136456   0.4013098  -0.1096059  -0.9049818  -0.5129618
  -0.0612908   0.3782871  -0.1087602  -0.0388694   0.0177277   0.2004688
   0.9753534  -0.8755036  -0.2242981  -0.8184146   0.1061480  -0.3294175
   0.1879277   0.0314568   0.1237891  -0.8024267   0.1215718   0.7465943
   1.2858959  -0.4905909   0.1639853   0.0615753   0.2401197   0.0980786
   0.6539516   0.3370206   0.0394020  -0.0219065  -0.4215157  -0.0243667
  -0.0676782   0.5965295   0.1424184   0.2769142  -0.3435643   0.4396944
   0.2507471  -0.1433602   0.2343064   0.1374923   0.0802546   0.0652773
  -0.0405764   0.3297837   0.0747573   0.1611859  -0.1249248  -0.1316808
  -0.1207457   0.0121726   0.0086573  -0.2880625   0.1991183  -0.1645709
  -0.1887032   0.1090270   0.2284127   0.1122558   0.0766767   0.0337721
  -0.6785676   0.6070961  -0.5340862   0.1846778  -0.8126599  -0.1927528
  -0.2397046  -0.1206333   0.0908066  -0.6013439  -0.6577144  -0.0835341
  -0.6593224   0.2287181  -0.1282470  -0.3264268  -0.0286557  -0.2238992
  -0.2724561   0.2837842  -0.2759905  -0.3035404   0.2756913  -0.4388274
   0.1777536  -0.0667316  -0.0289671   0.4644809   0.0259929   0.0641622
   1.3439372   0.2970015   0.3806056  -0.3101220   0.1617347   0.0100300
  -0.7415810  -0.3624744   0.3449369  -0.2217071  -0.2145765   0.2730296
  -0.1830441   0.1441297   0.0379439  -0.5946238   0.2344247  -0.2494842
   0.1598269   0.4968454   0.0992323  -0.1057784  -0.0289678  -0.5007777
   0.2996975   1.0870879  -0.4538959   0.7844143  -0.8464074  -0.2458324
   0.1148274  -0.1370634  -0.0235187   0.2990501   0.1185586  -0.1129713
   0.3135430  -0.0379829  -0.4060641   0.0970524  -0.0676388  -0.0988909
   0.0103223   0.5180494   0.3613368  -1.0612749   0.7798749   1.1585609
  -0.1052551  -0.2820189   0.1062643   0.1701634  -0.6231044  -0.6304374
   0.8513683  -0.3992932  -0.3977492  -0.0925780   0.0653790   0.0668068
  -0.1899865  -0.0450510   0.4364918  -0.3877389  -0.3133737   0.1638840
  -0.1161180   0.2476508  -0.3179343   0.3321071  -0.0334651   0.4947654
  -0.9285409  -0.4961613  -0.3027654  -0.6941930   0.0480485  -0.0082711
   0.2492186   0.5649310  -1.2407026  -1.1535765  -0.3141802   0.1866819
   0.0342151   0.2978149   0.1826110   0.0602922   0.7451200   1.0508602
   0.4202104   1.1112356  -0.8095188   0.2245148  -0.1713514   0.1193896
   0.8187332   0.8610040  -0.7025951  -1.6326976  -0.1819649  -0.1940714
   0.0665551   0.1717852  -0.1634137   0.1427672   0.2829090   0.2650568
  -0.3840372   0.1847916  -0.0434897   0.0002933   0.0930448  -0.0349940
  -0.0181593  -0.6131119   0.1383796   0.4491561   0.3251247   0.2502177
   0.0289815  -0.1417325   0.1077143   0.6133915  -0.5034687  -0.8448505
   0.8019305   1.1182379  -0.0081581   0.0170688   0.0674102   0.2352560
  -0.4217168  -0.0037733   0.2500695   0.3530516   0.1495454  -0.6414329
   0.1334529   0.0356461   0.1243450   0.4027604   0.0736399   0.6089218
  -0.8973709  -0.4871001  -0.2307452  -0.2399922  -0.0300453   0.2546590
  -0.3909321   0.9480049  -0.5033199   0.8557613  -0.4484358  -0.0804573
   0.0795443  -0.0550196   0.1488831  -0.0286607   0.2270899  -0.0973564
   0.1569901  -0.1954615   0.2739015   0.1456106   0.0874491  -0.0296417
  -0.0306279  -0.4567270   0.8852190   0.3466354   0.0686091  -0.0847088
  -0.1677394  -0.1767287  -0.1975958  -0.3166573   0.1847638  -0.6547304
  -0.0080389   0.1899707   0.4034060   0.0999529  -0.0948747   0.0185392
   0.3283185  -0.1737400  -0.0556563  -0.0749111  -0.3623953   0.0325689
  -0.0040290  -0.0424638  -0.3401073  -0.4404839  -0.1059128   0.5996391
  -0.1888926  -1.0132969   0.4527710   0.0310344   0.0181290   0.0288933
  -0.2974293   0.8530620  -0.7293997   0.4292452   0.6002153   0.9099332
   0.0226168   0.1303433  -0.1765094   0.2046422  -0.0852206  -0.2576186
  -0.4230404   0.6365449   0.0550106   0.0767379  -0.3230923  -0.2569000
  -0.1530469  -0.0249803  -0.4726227   1.8429932  -0.4218421  -0.2992825
   0.2238416  -0.1585643  -0.1122437   0.5934377  -0.6980059   0.3570113
  -0.2412606  -0.0614955  -0.5941107  -0.0798813   0.1796338   0.2035129
  -0.7867068  -1.1769710   0.5472633   0.5272656   0.1050531   0.3039900
  -0.2903697   0.0520885  -0.1790872   0.4889967   0.1992263  -0.1797821
   0.5785289   0.1141239   0.5871222   0.0355451  -0.0557265  -0.3316962
   0.5365404  -0.2810009  -0.7185561  -0.4028108  -0.5601002  -0.3301830
  -0.1415569   0.0636573  -0.2112740  -0.6069618  -0.2747583  -0.0804431
   0.8670174   0.2225527  -0.4518810  -0.1738283   0.0297605  -0.1081324
  -0.6062999   0.6337054  -0.2468464   0.2914251   0.2130946  -0.7966581
   0.2214948  -0.0125954  -0.0796511   0.2266648  -0.5516459  -0.9427050
  -0.2020752   0.3942364   0.6996749  -0.2751084   0.0399093  -0.3137917
  -0.7346888  -0.6059910  -0.6612569  -0.3429761   0.5506849  -0.3787130
  -0.0760168   0.1899271   0.4263446   0.2110296   0.2124694  -0.2516258
  -0.0141729  -0.0964024   0.9442570  -0.1285798  -0.3940632   0.0257078
  -0.4174486  -0.5627117  -0.3824464  -0.3522387   0.0383237   1.4263719
   0.0443713   0.3690176   0.0449817  -0.3193815  -0.3164411  -0.4483350
   0.8453286  -0.4521388   0.3935175   0.1627750   0.1566536  -0.1530030
  -0.2596352  -0.1235085   0.1559051   0.6448111  -0.4228512  -0.4569598
   0.0249638   0.3458685   0.1285224   0.1974402   0.6544365  -0.2785451
   0.0764262   0.0773387  -0.1103246  -0.2703647  -0.2289871   0.0403963
  -0.3809665  -0.3837442   0.1784195  -0.1190644  -0.2236662   0.0645860
  -0.3397795  -0.1486939   0.1169859  -1.0034544   0.0625405   0.6678661
   0.3541610  -1.1199817  -0.0689534  -0.1466458  -0.1881400  -0.4203180
  -0.2055182   0.0000741   0.0358288  -0.5258796   0.6858827   2.0669874
  -0.4131203   0.0851977  -0.1201485   0.0393223  -0.8184328  -0.6835655
   0.3401937  -0.0284611   0.6661627   0.1451114  -0.2589563   0.1323679
  -0.3481698   0.3214190  -0.4122494   0.1192907  -0.4134944   0.8510350
   0.0674327  -0.0097523  -0.1099180   0.4686642   0.3036187   0.9097603
  -0.3656610   1.0770387   0.5121649   0.0032819   0.0172586  -0.0035365
   0.7012416   0.2685400   1.2122594   0.7680811  -0.5999808  -1.0408731
  -0.3505568  -0.0375697   0.1396085  -1.0069016  -0.8762976   0.6363669
  -0.7214129  -0.1377784  -0.4743957   0.1875356  -0.0361054   0.1368984
  -0.1625170   0.6005657   0.1061417   0.4213632  -0.2898046   0.4116302
   0.0387346  -0.0110989   0.2927678  -0.0017314  -0.1583025   0.2664663
   0.1836673  -0.0983261   0.3743871   0.0624714  -0.3984751  -0.1425294
   0.2917926  -0.3488214   0.0419638   0.2641181  -0.4036585  -0.0693778
   0.2985359  -0.3225369  -0.0571311  -0.5017052  -0.0088089   0.0464240
   0.0848111  -0.4886920  -0.5298519  -0.3113188   0.0953874   0.0878042
  -0.4549105   0.1374349  -0.6036931  -1.4112890   0.5050962   0.8363120
   0.0044316   0.1986611   0.0584518   0.2287646  -0.1929504   0.2407308
   0.2154091  -0.3857005   0.3541294   0.0601713  -0.1219200   0.0862721
   0.0764684   0.2873710   1.0892546  -0.0605659   0.6884204   0.1998220
  -0.0431266   0.0320704   0.0506113   0.3858006   0.3587003  -1.3313607
  -0.5505297  -0.1833001  -0.0948221  -0.0636425   0.2798272  -0.3083793
  -0.7569865   0.2002927  -0.5886449  -0.8122214  -0.0667010   0.2232151
   0.0554137  -0.3813889  -0.0233705  -0.1093563   0.1195597   0.1483764
  -0.0867834  -0.0257026   0.2160944  -0.0539583  -0.1996308  -0.1050156
   0.3016336   0.0562237  -0.2025436  -0.2712338  -0.0410099   0.3053144
   0.2288907   0.0094303   0.0636127   0.3828024  -0.1594607   0.0825510
   0.3437249   0.1219081  -0.0412939  -0.0766165  -0.0245375  -0.0529360
  -0.0856089   0.4534381   0.2185632  -0.2344420   0.1918628   0.1541762
  -0.3698780  -0.0990532   0.1082735   1.5882998   0.1521712  -0.4204407
  -0.5283703  -0.7666215   0.8322819   0.1222044  -0.2837240  -0.3870136
   0.6456595   0.9822193  -0.5985171  -1.0934377   0.4608523  -1.6713995
   0.0924077   0.2594550   0.1218146  -0.0769004   0.6501470  -0.1674281
   0.2380863   0.1074100  -0.0702825   0.0456722   0.1315374  -0.0426769
  -0.4612969   0.6452329  -0.4848514  -0.3078227  -0.0672544  -0.2807382
   0.4001990   0.2654638   0.0243973   0.7737363  -0.9083347  -0.1584007
   0.1933164   0.1047983  -0.1101723   0.0118490   0.1884387  -0.1145112
   0.0777812   0.1929781   0.1864786  -0.4236126  -0.1246338  -0.2970445
  -0.1319968   0.1211429  -0.0992535   0.2160376  -0.2461613  -1.0468527
   1.2698740  -0.6080641   0.1317238   0.2470433  -0.2819000  -0.0455000
   0.2283827  -0.0087701  -0.7587340   0.0815418  -0.2126720   1.4858369
  -0.4083041  -0.1140696   0.1164973  -0.4201606  -0.1286541   0.1261596
  -0.3940069  -0.3367653  -0.0799990  -0.2289869  -0.0251009  -0.0693636
   0.5708066  -1.0356613   0.7933897  -0.6412725   0.3242384  -0.6885719
  -0.0915096  -0.2182285   0.0458357   0.3356439  -1.2263203  -0.3632221
   0.9192178   0.1549015   0.1732592   0.1141455   0.0393681   0.2209576
   0.5368510  -0.3430466  -0.2418223   0.3676949  -0.5297911   0.6071900
  -0.1002900  -0.0473574  -0.1983522   0.1792953  -0.3546609   0.1294450
  -0.0560044  -0.9424599   0.4603700   0.0315875   0.2761518   0.0652802
   0.0583067   0.2341468   0.5778992  -0.2362547   0.2212120   0.7361640
   0.1288271  -0.1837152  -0.3319687   0.1737134  -0.1471640  -1.6113258
  -0.4769545   0.7041534  -0.9484276   0.3752109  -0.4836020   0.0057761
   0.2194709  -0.1445840   0.1017023   0.1470560   1.1089375   0.7476996
  -0.3089178  -0.0021850  -0.5515082  -0.0693446   0.0552310   0.3326483
  -0.0500579  -0.8605340  -0.0191022  -0.2100368   0.2180628   0.0179795
   0.2997181   0.0159472  -1.6511513  -0.1274720  -0.3161309   0.2263399
  -0.0115281  -0.0989864   0.1486925   0.2691932  -0.5204045  -0.2686596
  -0.0474863   0.2171151   0.2912044  -0.1237461  -0.0046897  -0.3208241
  -0.8607058   0.7262063  -1.2543496  -0.6908084  -0.5912491   1.1117393
   0.1934964  -0.1144261  -0.0961461  -0.3685264  -0.3414279   0.2903483
   0.3537694   0.1840914  -0.3146868   0.2041366   0.1722267  -0.1269269
   1.1372459  -0.0123931  -0.7099676   0.1523051  -0.3332175   0.1488689
   0.2144196  -0.2214541  -0.0430111  -1.0301466   0.6740970   0.3317106
   1.0911201  -0.3489000  -0.7252605   0.1459560   0.2267201  -0.0683463
  -0.1486275  -0.5111651  -0.3953121  -0.1039055  -0.2885676  -0.2805578
  -0.2058866   0.2895471  -0.1413518  -0.2411014  -0.3068741  -0.1332341
   0.0217375  -0.4191621   0.1952568   0.0010746   0.0730874   0.0008280
   0.6727009   0.0782886  -0.0353153   0.8370749   0.2371987   0.1765155
  -0.0126315  -0.0299604   0.0450226   0.1866972  -0.5836431   0.7277703
  -0.4598064   0.5677113   0.3117346   0.1665711   0.2652693   0.1633932
   0.7350595  -0.3897211  -0.3107280  -0.1169351   0.8539404  -0.5563331
   0.1730021  -0.1630369  -0.1605201   0.3470691   0.3066571  -0.6516928
  -0.2296669  -0.4393263  -0.0017596   0.0574078  -0.0208903   0.1354963
   0.6126644   0.7996973   0.3043763  -0.0047762  -0.4377287   1.0194191
  -0.0417322  -0.0480199   0.2879682   0.4864185  -0.5699824  -0.3185609
  -1.0186629   0.2314959  -0.1175847  -0.0319856  -0.2149772  -0.2526503
  -0.2500156  -0.1957761  -0.0356894  -0.9745449  -1.4772586   0.9742967
  -0.0042893  -0.1033286   0.0527418   0.0204309   0.3181541   0.2072135
   0.1618163  -0.0702450   0.0550250   0.0538487   0.1052013  -0.1189890
  -0.2950950   0.3883761  -0.0247101   0.3321638   0.2663749  -0.4988207
   0.0964601  -0.3679897   0.2453911  -0.0600275   0.6823244  -0.6988786
   0.2087425  -0.4986377   0.2651630   0.2094549  -0.1423831   0.2926882
  -0.0019268   0.4048396   0.3019226   1.4012932  -0.0336146   1.3202944
   0.3324082  -0.0919328  -0.2298223   0.0913668   0.3451987   0.7164351
   0.7172605  -0.2277960   0.0473334   0.1234849  -0.0896237   0.0060655
   0.6188704  -0.0512111   0.1796856  -0.1633698   0.2445609   0.2249214
   0.2148167   0.2722532   0.0631341   0.3739383   0.7998838  -0.6030203
   0.7220493  -0.3779045   0.5002379   0.0708026  -0.1161782   0.1275004
   0.0528593   0.1086226   0.1006645  -1.4453520  -0.6164320   1.1012427
   0.1984342  -0.0789285  -0.1370839  -0.0103550  -0.4134928  -0.0955972
   0.7548821   0.4735891  -0.3835729   0.2617871  -0.1429877   0.1905012
  -0.0845780   0.3525627  -0.5229085   0.7852636   0.7179275   0.6292230
  -0.1905042  -0.1536774   0.0276415  -0.3187094   0.4172980  -0.0326790
  -0.4902110  -0.5454108  -0.3299681  -0.1477074   0.2362112  -0.0750313
  -0.2261067   0.0603021  -0.3210449  -0.2181841   0.0866891  -0.1516008
   0.1363842   0.2151624   0.2813056  -1.0572181   0.1622713   0.8659641
  -0.1836746   1.3423314   0.3292698  -0.3288134  -0.1867228  -0.0022020
  -0.1879398   0.0198142   0.8852576  -0.1699510  -0.3384024  -1.1437547
   0.0624292   0.2606620  -0.3414054   0.3456177   1.4239368   0.3588637
   0.1215954   0.6003182  -0.0115485   0.0332591  -0.2284552   0.1894595
   0.4798870  -0.1044302  -0.4257456  -0.2983467  -0.6349990   0.4512720
   0.1237443   0.2180631   0.0493703   0.9467241  -0.6974039  -0.2770635
  -0.2451805   0.8663854   0.1816552   0.1452794   0.1676361  -0.3691361
   0.4491131   0.2889982  -0.5245398  -0.1260095   0.0841717  -0.5440922
   0.2340762   0.3611955   0.0061483  -0.7183592   0.4615351  -0.3355475
   0.1129178  -0.9545891  -0.1302615   0.0307399  -0.1518496  -0.2376414
   1.6678363  -0.0321598   0.2464796  -1.2442552  -1.0471537  -1.1531596
  -0.1920702   0.0093992  -0.0230403  -0.0131425  -0.9179508  -0.5972366
   0.6298653  -1.2554768  -0.3153448   0.1351061   0.3302166   0.0451596
   0.4481950  -0.6700091  -0.2793830   0.5663699   0.2250524  -1.0553887
  -0.4435688  -0.1462875   0.0138009  -0.7114303   0.3876112  -0.3883244
  -0.2514713  -0.4049648   0.5290632   0.0321890   0.0228682  -0.1397222
  -0.1550501   0.2258001   0.1430712  -0.3950339   0.1469369  -0.0930467
  -0.3879075   0.3304233   0.0404616   0.2971342  -0.1139590   0.1309522
   0.4814638   1.0250280  -0.6416483   0.0339657  -0.1062960   0.1067571
   0.4809741   0.4005886  -0.6758517  -1.6594137   0.5150286  -0.5878591
   0.1031503  -0.2248514  -0.2487189   0.3533674  -0.3218354  -0.5762332
   0.0204953  -0.2825823   0.3672919  -0.0957487  -0.1612142  -0.1588095
   0.0243211  -0.5077005   0.0916398  -0.4627694  -1.3277590   0.0487000
  -0.1761469   0.1274961   0.0694636   1.0050019   0.0968881   0.7265037
   0.1627084  -0.1588478   0.5115122   0.2346539  -0.1585761   0.1336120
   0.4325152  -0.7057328   0.2385546  -0.3369508   0.3862515  -0.3519754
   0.0180388   0.0776110   0.4403830  -0.4095893   0.8801681   1.1735601
   0.6670087   0.0350527   0.3088219  -0.1760103  -0.0967098  -0.2402469
   0.1501367   0.4304046  -0.6672799  -0.1587055  -0.6728593   0.4922473
   0.1115610  -0.1527297  -0.0582205   0.0683904  -0.3296399   0.1609740
  -0.0459567   1.6636779  -0.6516309  -0.0765051  -0.1383603   0.2025394
   0.5741073   0.1826678  -0.0429871  -0.7323407   0.9501224   0.5252870
   0.1177290  -0.0972828  -0.1902504  -0.6481187  -0.4912306  -0.0861951
  -0.0618660   0.4710461   0.3227902  -0.0291023   0.0135834  -0.1128955
   0.8906713  -0.7152495   2.0590723  -0.9995060   0.9994993  -0.0614038
  -0.1176770  -0.0470008   0.2308537  -0.0254657   0.0877902   0.2023423
  -0.0615206  -0.0726120   0.1495660  -0.0316479   0.0151110  -0.2335454
   0.3964146  -0.5706253   0.1478034  -0.1860902   0.6179397  -0.1551374
  -0.1240848   0.3151102   0.2747816  -0.4625494  -0.2261514   0.7241664
  -0.2076961   1.1326106   0.6383296  -0.1580119   0.0217351  -0.0726779
   0.4384914   0.3008388  -1.4059858  -0.0229004  -0.3776947   0.4132252
  -0.0327542   0.0058289   0.1315355   0.4715290   0.1826464  -0.0187677
   0.3467780   0.2083043   0.1355127  -0.0124097  -0.0424113   0.3150695
  -0.1778320  -0.2450855  -0.1866484   0.6003948  -0.0093990   0.3181993
   0.3086872  -0.4608947   0.0530881   0.3521177   1.2723241  -0.3205508
   0.3117229  -1.1256010   0.1811216  -0.1991507  -0.0891196   0.2175547
   0.1678148   1.2500720  -0.3982694  -0.4653041  -0.7034979   0.5600137
  -0.1582683  -0.0904654  -0.1816712   0.5048903  -0.0940794  -1.3642901
   0.7828290   0.0636640   0.3319017   0.1966160   0.2547322  -0.1793893
  -0.0320977  -0.0216124  -0.0733477  -0.1094583  -0.2679671  -0.0697884
  -0.0168370  -0.2260861  -0.2379707  -0.6756227  -0.3910078  -0.1141525
   0.1971058  -0.7260242  -0.0573547   0.0936822   0.0078913   0.3301887
   0.4284781   0.6607081   0.4040210   0.7614693   0.4780337   0.2595230
  -0.2796140  -0.1443947  -0.1934290  -0.3979183  -0.8362028   0.1642727
  -1.8619503   0.0815655   0.3851682   0.1734739  -0.0623994  -0.1731392
   0.8705447   0.1839291  -0.6384455  -0.4630025   0.2582118  -0.1222466
  -0.2396611  -0.0567019  -0.0498805   0.2478070   0.5832543   0.3583270
   0.1770827  -0.0799049   0.0060416  -0.1282795   0.2294930   0.0956564
   0.2967247   0.0217605   0.5529152  -0.2931309   0.1022272   0.2235180
  -0.2543970  -0.0363257   0.0391862  -0.0186175  -1.0249438  -0.3613476
  -0.1993004  -0.3487423  -0.1145986  -0.1490221  -0.2872665  -0.1387664
   0.0565794  -0.3390383  -0.2767927  -0.2796588  -0.3945167  -0.0488787
  -0.2731634   0.2632814  -0.2271651  -0.0140915   0.1669883  -0.2739864
  -0.4250468   0.0565700  -0.5167896  -0.2023197  -0.2324670   0.0641354
  -0.1534667   0.1521773   0.4702925  -0.7137434  -0.4334132   0.1249841
  -0.1725007   0.1869764   0.0090118   0.2313685   0.2326246   0.2161016
  -0.3258483   0.1164514  -0.0176073  -0.2936517   0.2152991   0.2383480
   0.3494368   0.3549783  -0.2424883  -1.5146170   0.0605141   0.6950876
   0.0874726   0.1187146   0.0496972  -0.9151305   0.0053316   0.3394870
  -0.0526278   0.4523226   1.3721271   0.0228428   0.0113025  -0.2884224
   0.3171402   0.0536787   0.2212839  -1.1988440   1.4136556  -0.2687756
   0.1250463  -0.2959474  -0.3707257  -0.9379658  -0.7297796  -0.6428215
  -0.5728982   0.0376270  -0.9520188   0.2569198   0.3193720  -0.0019090
  -0.0088374  -0.7514748   0.1149310  -0.0131690  -0.9717621   0.1293824
  -0.0603728  -0.2301353   0.0515898  -0.5339743   0.8879720   0.6906679
  -0.1169202  -0.6374874   0.1057957   0.0213083  -0.2455881  -0.0658447
   0.6859191   0.7778849   0.2587866   0.3879952   0.2716007   0.1534372
  -0.1137681  -0.0699732   0.0201921   0.7750292  -0.2634691  -0.6993886
   0.2108818   0.4655572   0.7061011   0.1368720   0.1526760   0.3022534
   0.1404438   0.1088453   0.3358932   0.1352191  -0.1378112   0.4347595
   0.1676168   0.1653004  -0.1397705   0.9138856  -0.5802807   0.2445441
  -0.5520200  -0.2880391   1.3934118   0.1088688   0.2821045   0.0974885
   1.1889941   0.2726525  -0.1322592  -0.8467093   0.7055958  -0.0414484
  -0.2721793   0.0504961  -0.1837940   0.3011487   0.1744101  -0.2852852
   1.8461198  -1.0528110  -0.0530151  -0.2953731  -0.1965887  -0.2099603
  -0.0184564   0.1677338  -0.4022057  -0.0967756  -0.1925037   0.2256796
   0.2478017   0.0711555   0.0718912   0.3701452  -0.1360176   0.1928189
   0.2887436  -0.0175418   0.0257469   0.2861937  -0.0690604  -0.2555355
   0.5553882  -0.3599163  -0.4525450   0.9195405  -0.6104032  -0.6036288
   0.0157741  -0.0219852   0.1936711  -0.2247914   0.7624843   1.0536281
  -0.6450714  -0.1860112  -0.3653841  -0.1282860   0.0461194   0.0298562
  -0.8039733  -0.9807087  -0.8568833   0.0109681   0.6439256   0.5863865
  -0.0639824   0.2573730  -0.3430906  -0.8587538   0.1765288   0.1691377
   0.6209680   0.3368361   0.2899428  -0.2604532   0.1734208  -0.1163074
  -0.4511490  -0.1702853  -0.5372857  -0.1560118   0.2945116  -0.4992907
  -0.0267026  -0.1476138  -0.0508407  -0.3246911  -0.0785642   0.0766553
   0.1249075  -0.1713763  -0.1093425   0.0889496   0.1854769   0.1131345
  -0.0900755   1.5299008   1.3830809  -1.2576154  -0.1962796   0.8814997
   0.3500320   0.1529824   0.0113650   0.3218450  -0.0108952   0.8942753
   0.3736312   1.0469477  -0.0745622   0.1938554  -0.0512759  -0.3511791
  -0.2750688  -0.3520759  -0.0838534   0.4269362   0.1170207   0.1549710
   0.0157516  -0.1575273   0.0652979  -0.0940502  -0.6124161   0.5186903
   0.4853433   0.2978190   0.3658768   0.0720537  -0.0902092   0.5372358
   0.8090300  -0.5197685   0.4252759  -0.6194537   0.0320924  -0.5327507
  -0.0140055   0.3372464   0.0860611  -0.5853984   0.3934296  -0.2606870
   0.1416872   0.9081576   0.4972899   0.3277881   0.2645747  -0.1997963
  -0.0167171   0.3638628  -0.9691193  -0.0726437  -0.4348223   0.2594925
  -0.1136370   0.2752806   0.0581252  -0.2403425  -0.3974534  -1.6364256
   0.7130084   0.0484013  -0.7232676  -0.2991122   0.0120834   0.0039191
  -0.4394304   0.0142902  -0.9555691   0.8654455   0.0396545   0.2420031
   0.4382477  -0.0218952  -0.0147586   0.6080142   0.1571979   0.0410028
   0.1464548   0.6439855  -0.5173647   0.3421369  -0.1466891   0.0219846
   0.3586434  -0.7444352   0.0994813   0.2858605  -0.5908753   0.0834210
   0.1788124   0.0821022  -0.1301442   0.9088257  -1.4165653  -0.4327586
  -0.3396745  -0.8388792   0.0740383   0.0058090  -0.0263282  -0.2436136
   0.0144587   0.1262119  -0.5007104  -0.0415575  -0.1078798   0.1755398
   0.0778127  -0.0041763  -0.1042313   0.4953645  -0.7691744   0.7697606
   0.0588942  -0.0329358  -0.8911679   0.1982907   0.0446550  -0.0473912
  -0.0712523   1.2309758   0.0740806  -0.7249546   0.6861033  -0.5417135
   0.0723462  -0.1671543  -0.2023225  -0.3544748  -1.2354986  -0.3496043
   0.9529984  -0.9911357   0.3869788   0.1205895   0.0301507  -0.0286671
   0.4022480  -0.7908347   0.7942589  -1.0218464  -0.1197496  -0.2335311
   0.1137351  -0.0377934   0.0069672   0.4769821   0.3432405   0.2859228
  -0.0532965  -0.3975400  -0.3777510   0.2253345  -0.0041637   0.1626788
   0.0280805  -0.8669911   0.5886072   0.1293123  -0.0739528   0.3586372
   0.2240708  -0.2528551  -0.0860816   1.1180044  -0.2573959  -0.0656083
   0.5569966   0.8257148  -0.9214484   0.1491850   0.1099454   0.0874762
   0.1532870   0.3292607   0.1146506   0.0478015  -0.0117964   0.2959173
   0.3561080  -0.4317659   0.0061464   0.0225101  -1.7745886   0.3834788
  -0.2367542  -0.5234315   0.0502687  -0.1520113   0.0496040   0.2792234
   0.1664263  -0.3771921   0.1913300  -0.2704556  -0.2819689   0.1588053
  -0.0360493  -0.0366205   0.0349296   0.0937833  -0.4645775   0.1301446
  -0.2881441   0.1256861  -0.4929899  -0.0638119  -0.2098273  -0.2806618
  -0.9641691  -0.2846180  -0.4584565  -1.0425345  -0.3351460  -0.4436974
   0.2990379   0.1602179  -0.0635264  -1.0488507   0.8280928   0.2002040
  -1.0494282  -0.6615474   0.2003437   0.1841723   0.1873871   0.0925744
  -0.6460693   0.3702951   0.4148800  -0.8424495  -0.1561167   0.0907009
  -0.2068147  -0.1032576   0.3318379  -1.4948753   1.0928958  -0.1701544
   0.4259438   0.7084083   0.5544309  -0.0291748   0.0804074  -0.0250176
  -0.0598080   0.7644117  -0.7750743   0.3627454  -0.3348259  -0.0209621
  -0.0145492   0.4628618  -0.3990924   0.3857599  -0.1668969  -0.0451815
  -0.0056418   0.8586595  -1.1129908  -0.0867703   0.0263415   0.0462576
  -0.5641903  -1.2788155   0.5844188  -0.0395438   1.3279322   1.7809502
  -0.2002793  -0.1299430  -0.3993864   0.1503299   0.3329026  -0.5727223
  -0.3345364  -0.0864660  -0.7218399   0.2357443   0.0443535   0.1415645
  -0.0341222   0.2075582  -0.4497572  -0.5293471   0.1470584   0.0818794
   0.1424762  -0.1888001   0.1220953   0.7205954  -0.1921885  -0.1956780
   1.5280033   0.3428210  -0.4555600   0.0615280  -0.2618214  -0.1713031
   0.8849233  -0.3150700   0.3993017   0.7685256  -0.3241771   0.3334126
  -0.0583769  -0.0431161  -0.1603328   0.2401827   0.2497637  -0.0110213
   1.0635618   0.0611898   0.0802043  -0.2497739  -0.0428878  -0.1258182
  -0.6610146  -0.0645844  -0.5267926  -1.3022446  -0.2694277  -0.8988559
  -0.1181403  -0.1698881  -0.1673611   1.1149573  -0.1013976   0.3267357
  -0.4067685  -1.0945518   0.5133095   0.2591734   0.3606284  -0.1534128
   0.8469492   0.0869974   0.0314864  -0.3730735  -0.0071789  -0.5366547
   0.2546732   0.0814018   0.2181585   0.1423363   0.1590183   0.9358388
   0.5677709   0.2181362   0.1828749   0.2732870   0.2213876   0.1973341
  -0.3083292   0.3095069   0.0313811  -0.5711409  -0.1069537  -0.8148012
   0.0107055   0.0404551  -0.3407032   1.2978862   0.2390835  -0.3721987
  -0.2531145  -0.0922582   0.4361865  -0.1382378  -0.0231036   0.0678450
   1.0171499  -0.3283330  -0.1958903  -0.3987940  -0.2564236   0.0775951
  -0.3332312   0.3147273  -0.2030142  -0.3795696   0.3326852  -0.2103875
   1.1273896  -0.4816617   0.0665026   0.1573733  -0.3757286  -0.1390493
   0.6967394   0.5531521   0.5340701  -0.1580355   0.0882759   0.6742347
   0.4279342  -0.1744811  -0.1750309   0.1057974  -0.4300685  -0.5043427
   0.6566383   0.3064148  -0.3923151  -0.0471588   0.1759776  -0.0032953
  -0.2124918   0.2131464  -0.3191913   0.6439066   0.5623018   1.2361239
   0.1834974   0.2362330   0.1381660   0.7682795   0.7484387   0.3257007
  -0.4738702  -0.3654877  -0.5706031  -0.0366021  -0.3011986  -0.1873297
   0.3638036  -0.3131074   0.3052940   0.8245319  -0.3267794   0.8723131
   0.1786992   0.1358967  -0.0330147   0.0884957   0.2995562   0.0233972
   0.7664179   0.4295494  -0.7787842  -0.0223042   0.1933541  -0.1422609
   0.2159610   0.3395916  -0.4781620   0.8840941  -0.3668420   0.1971893
  -0.0459271  -0.0973218  -0.0111587  -0.1351032   0.0299682  -0.4833915
   0.1944748  -0.2887397  -0.3728353  -0.0440208   0.3192586  -0.0411042
   0.1523017  -0.0211133   0.2747413  -0.4092489   0.4326500   0.3973932
  -0.2550551   0.2174759  -0.0362654  -0.8606451  -0.3638748  -1.5263129
   0.7120959   0.9300664  -0.3205838   0.0829856  -0.0766652  -0.0000768
   0.5957975   0.5034907  -0.8809095   0.2692750  -0.0607112  -0.1967561
  -0.0224353   0.0511468   0.1003660  -0.6577281  -0.9069475  -0.5391729
  -1.0631170   0.6831757   0.6155285  -0.1034577   0.0808891   0.0620930
  -0.4577429  -0.2756637  -0.4401509  -0.4900312  -0.6558241  -0.2076095
   0.1906110   0.4523654   0.1667482   0.5320361   0.8395449  -0.2345503
  -0.4034160   0.6898012  -0.1388088   0.1616988   0.0388469  -0.0036017
  -0.0427572   0.1006831  -0.0948329  -0.2687899   0.8926516  -0.4007163
   0.1419770   0.5176729   0.0338310  -0.2573189   0.2064823  -0.2207333
   0.8717991   0.5993798  -0.2071406  -0.1114045   0.1104190  -0.7229342
  -0.1734651  -0.1108458  -1.0677349  -0.2970324  -0.0749573  -0.4762834
   0.3232839   0.2835074   0.2449134   0.2805516   0.2576144   0.3607097
   0.0002902  -0.2626599   1.0022943  -0.2725077  -0.2068636   0.2312607
  -0.2306615  -0.9251802   0.0219126  -0.2674395  -0.1039435  -0.0155114
  -0.0581296  -0.2094809   0.3656068   0.6352756   0.6497362   0.3555345
  -0.1537320  -0.2162292  -0.7672290  -0.1896960  -0.0481352   0.0674239
  -0.0782782  -0.0678840   0.3876421   0.0088933  -0.8066431   1.2442466
   0.0654186   0.2278478  -0.1170736  -0.4964566   0.0960280  -0.1841192
  -0.0480914   0.4327352  -0.7066946   0.5582849   0.3274625  -0.0642075
  -0.8346977   0.4238588   0.4219524   0.9942659  -0.3547399  -0.1752575
   0.0251602  -0.1639050   0.1841429   0.6214092  -0.3227267  -0.2464531
   0.6505400  -0.4713432  -0.3024216   0.1748850  -0.1877066   0.0655466
   0.1589068  -0.3425798  -0.9282901   0.7343781   0.3250309  -0.6802944
   0.1115520   0.0030133  -0.0510761   0.4229669   0.8364676  -0.2759294
   0.0861338   0.3008115   0.6273987  -0.2526636   0.1433807  -0.1709501
  -0.6223532   0.5133373  -1.2358446   0.2223263   1.3675569   0.1348138
   0.0106532   0.1326275   0.0514347   0.4637296   0.7542074   0.4022175
  -0.1280791   0.3698280  -0.6987314  -0.2752554   0.2097361  -0.3237376
  -0.2705357  -0.4334338   0.1812698  -0.4085911   0.3967094  -0.1389618
   0.0010998  -0.0817591   0.0657341   0.0019963  -0.3900392  -0.0979693
   0.6165654   0.6346139  -0.7196682   0.1610987  -0.0730644   0.1145023
   0.2210440   1.3476293   0.7432988   0.6179547   0.5711949  -0.1048180
   0.0951247   0.1468548   0.2110499  -0.4651700  -0.3900602  -0.4427908
  -0.4027688  -0.0630227  -0.0420536  -0.0749390   0.0845039   0.1646074
  -0.2206360   0.8161805   0.5403734   0.0660813  -0.4716806  -0.5669065
   0.1653842  -0.1376824  -0.0350675   1.0960653  -0.6044457   0.6022033
  -0.2427385  -0.8221756  -1.8524258   0.0490186   0.1144318   0.0529796
   0.5843507   0.3344176  -0.1511569   0.1017928  -0.4678623   0.1867962
  -0.1291075  -0.2603994   0.2695404   0.2000880   0.4935083  -0.2855625
   0.0311588  -0.1687115  -0.0017041  -0.0182816   0.0334118  -0.0033224
  -0.0399457   0.7618568   0.6671953   0.4363524  -0.1968604  -0.3664965
   0.1413328   0.1393901   0.1740400   0.0845602  -0.0073451   0.1895875
   0.2122285  -1.2858598   0.7623705   0.0229212  -0.0355807   0.0370401
  -0.0083366  -0.8148640  -0.3111288  -0.5325579  -0.3134609   0.2452171
  -0.2002654  -0.2116853   0.3374801   0.1259229   0.1848546   0.6147283
  -0.1142639  -0.3739098   0.1906672  -0.0552030   0.0957160  -0.0831358
   0.6858646  -0.5849841  -0.3291993   0.2134055  -0.3723120  -0.1162341
  -0.2749111  -0.0682725  -0.1603570   0.2489315   0.0578088   0.1307055
  -0.1748731  -0.5466722  -0.1062766   0.0605157   0.3507460   0.0632742
   1.2010630   0.6516867   1.6560244  -0.6915806   0.1870640  -0.9484059
  -0.0786506   0.0348753   0.0906483  -0.1685959  -0.3537836  -0.2366575
   0.7168459   0.2293022  -0.4389877  -0.0708141   0.1793832   0.1388421
  -0.7800392   0.8834348   0.2888953  -0.2256488   0.5160915   0.2326639
   0.1490861  -0.1900046  -0.0949117   0.0403479  -1.0141904   0.6482224
  -0.5305043  -1.0294220  -0.1028559   0.1573641  -0.1964993  -0.2823796
   0.7027073  -0.1533051   0.1353803   0.6101904   0.1754197  -0.6700064
   0.0323996  -0.2434182  -0.1088570   0.0993930  -0.9269719  -0.1343201
   0.4335298   0.3882756  -1.0609582   0.1137536  -0.1047188  -0.2756700
  -1.3719605   0.0802211   0.1587054   1.0709671  -0.5453050  -0.4191493
  -0.0640333  -0.0973007  -0.2394933   0.0633825   0.8882635  -1.8852218
  -0.7771685   0.4583275   0.6345364  -0.0376355  -0.0516029   0.1912299
   1.1507302  -0.4164246   0.1700814   0.3753396  -0.2224350   0.7537333
   0.0979176  -0.0034845   0.3371778   1.0471319  -0.1374704   0.0802336
   1.2023407   1.0674995   0.1213082   0.2076108  -0.2724294   0.0174387
   0.5003769  -0.5223478   0.1182056  -0.0137889  -0.2494737   0.0083317
   0.0815601   0.0271283  -0.1515592   0.0631982   0.3594599   0.1730619
   0.0152167   0.4260890   0.6829071   0.0473300  -0.3049981   0.0270338
   0.6251002   0.5995184  -1.2244014  -0.7597499   0.6927838  -0.2534472
  -0.1135032   0.2147880  -0.1148603  -0.0335982   0.4095180   0.3999756
  -0.0340369  -0.0225241   0.1146933   0.1992008  -0.2452825   0.1519336
  -0.0654354  -0.4409635   0.3746692  -0.0867566   0.4818240  -0.0678856
  -0.1769081  -0.0741132  -0.0139357  -0.7795440   0.2039804   0.3588317
  -0.9144145  -0.2532571  -0.1816230  -0.1919376  -0.3582380   0.1658372
   0.5240281  -0.2694887  -0.1965321   0.1624432  -0.9821542  -0.3995290
   0.0682091   0.3515997  -0.1829650  -0.2138319   0.6181253  -0.0605827
   0.2930404  -0.0965881  -0.3780509   0.2929150   0.0802067   0.0146685
  -0.2232856  -0.3423419  -0.8757363  -0.0257381   0.2805725  -0.7747118
   0.0290319  -0.0455503  -0.1728075   0.7059586   0.9668273  -0.3550893
  -0.3208252  -0.5702082  -0.4375649  -0.0257907   0.2247629   0.0830967
   0.0012641   0.3594046   0.2835033   1.1885545   0.0831019   0.5087035
  -0.2413682   0.0236321  -0.0142605  -0.4968788   0.4194535   0.7725944
  -0.5400185   0.2587728  -0.1125049  -0.1086687  -0.0825589  -0.0247029
   0.0707362  -0.4196938   0.0659931   0.0991935   0.3092380   0.1038711
  -0.0691068   0.0827053   0.0232345  -0.5083510   0.6332011   1.0429433
   0.4885387   0.5914019   0.1039906  -0.1939716   0.0800391   0.0568066
  -0.9402503  -1.2701566   0.4777536  -0.3819102  -0.5890211   0.2497530
   0.0570616  -0.3320299   0.1948165  -0.5424823  -0.5478058   0.6569231
   0.3329373  -0.1633131  -0.5315508  -0.2145519  -0.3536536   0.1011387
  -0.6191437   0.0750498  -0.0066804   0.0677981  -0.6190970   0.1935449
   0.0517939  -0.3686470   0.0727878   0.3618983   0.4509211  -0.5599002
  -0.0330303  -0.7161994   0.6441760  -0.0876380   0.3638275   0.0407131
   0.9029580  -0.8709107  -0.4029783   0.1040989   0.6922837   0.2877121
  -0.1495378   0.3526523  -0.0571321   0.2053230   1.5816733   0.1897810
  -0.1783651  -0.0621710   0.5200855   0.1901800  -0.3209898  -0.0657296
  -0.0617796   0.8615936   0.2391520   0.3389317   0.6217317   0.0086251
   0.2167215  -0.0179643   0.0670577   0.1761080   0.2358979   0.2209306
   0.0677259  -0.4846276  -0.4529567  -0.3484398  -0.2468103  -0.1081733
  -0.7722619   0.4001706  -0.8185773  -1.1393902  -1.1378587   1.1781431
  -0.1596146  -0.0784260   0.0718589   0.6180849  -1.1696686   0.2400645
  -0.0395308  -0.3632657  -0.5774106   0.0057815   0.1496526   0.0334560
  -0.3715807  -0.8078654   0.2815126  -0.2617319   0.0421705  -0.0724450
  -0.2362531   0.0918162   0.4283549  -0.5903026   0.3808528   0.0590585
  -0.8984205   0.1544686  -0.1545919  -0.2127190   0.1023501  -0.2692135
   0.0425586   0.7699217   0.2199294  -0.4767641   0.2952133   0.4336790
  -0.3250812   0.1460664   0.0277176   0.7158042  -0.2915312  -0.9671347
  -1.5098482  -0.7539402  -0.0471403  -0.0268779   0.0899443   0.0506393
   0.3928865   0.8674901   0.0372844   0.1310274   0.4566938   0.0553363
   0.0153900   0.3066758   0.0566930  -1.1119574  -1.0291526   0.0997389
   0.1342498   0.1795163   0.1321599   0.5681467  -0.0047557   0.0838597
  -0.0230399   0.2072048  -0.4862366   0.9713469  -0.1810828   0.4093702
  -0.0463179  -0.0181853   0.0255816  -1.7205105   0.5296135   0.1051343
   0.4827489  -0.5900181   0.5254533   0.0302786   0.1251872   0.0510598
   0.7356103   0.2065199  -0.3754562  -0.3219864  -0.5455475  -0.3474755
   0.0298518  -0.1356964  -0.1553512   0.6702737  -0.0467117  -0.2564353
  -0.1316117   0.2633001  -0.3084394   0.1602663   0.1433034   0.1915412
   0.9951668   0.8756966  -0.0300491   0.3312428   0.1438475  -0.4570620
   0.1185658  -0.0988741   0.0950438   0.5843032   0.5335313   0.3122924
  -0.1850369  -0.2172757  -0.0170893  -0.2573757  -0.1419842  -0.1591885
  -0.6924936  -0.9160887  -1.2281924  -0.2455482   0.7644361   0.2465200
  -0.0216025  -0.1131315   0.0630098  -0.2627779  -0.0500223   0.1269422
  -0.1207336   0.3180872   0.6127672   0.1321954  -0.0619170   0.0874286
  -0.2377681  -0.1783663   0.3575738   0.2556876  -0.1398835   0.2023030
   0.0607273  -0.1745547  -0.1774363   0.4041540   0.6808222   0.1565994
  -0.9756781  -0.1467868  -0.1124221  -0.1376341   0.0720345   0.1930304
   0.3694448   0.8136068  -0.2501922  -0.6890839  -0.7588397   0.2929113
   0.1216436   0.2577529  -0.1483552   0.1907314  -0.3070202  -0.1007178
   0.2877613  -0.7617004  -0.0462600  -0.2685353  -0.2113772   0.2466422
   1.2665971  -0.5314306   0.4720209  -0.1740734   0.6518493   0.4658094
  -0.0160886  -0.0179766  -0.3222068   0.5568234  -0.3565802   0.6247382
  -0.0432195  -0.6131837  -0.4677133  -0.3321690   0.0296787   0.5620577
  -0.1939364   0.8215531  -0.0751612  -0.9234222  -0.2707861   0.6646973
  -0.2940798   0.2112850  -0.2736557  -1.1532614   0.6861831   0.3982329
   0.1095653  -0.0097861  -0.5698907  -0.3314929   0.1326433  -0.3574795
  -0.1252526  -0.1667381  -0.3586672   0.1651430   0.2164881   0.2718839
   0.1645088   0.1020402  -0.0425417   0.6830289   0.2291760  -0.5350987
  -0.4894917  -0.1412555   0.6607528  -0.2902480   0.1402475   0.0052997
  -0.2244469  -0.5555861  -0.0563179  -0.5537059   0.2289197   0.6443131
   0.1440401   0.0942914   0.0821721  -0.2915030  -0.1653302   0.4884396
  -0.2522855   0.0019136   0.5175727  -0.5234686   0.1057230   0.0678186
  -0.8188539   0.1374432   0.1708568   0.4956387   0.2550749   0.4507771
  -0.1854580   0.2045726  -0.1903756   0.1120116   0.0612546  -0.2186344
   0.2574660  -0.5002299   0.6515421  -0.1104199   0.2881406  -0.0186929
  -0.0041845  -1.0425007  -0.0237684  -0.0876589  -0.5104376  -0.1320829
   0.1372408  -0.0670487  -0.1607810  -0.0866951  -0.3093583   0.2828834
   0.5254168  -0.5876428  -0.5746214   0.2552741  -0.1052276   0.0011945
  -0.7172036   0.1903588  -1.4875399  -0.1378677  -0.2726368   0.2140245
   0.2206314  -0.5011559  -0.1057737   0.2624309  -0.9189341  -0.4832891
   0.1202899  -0.4118216   0.0176253   0.3565787  -0.0107278   0.0323480
   1.0627883   0.8362329   0.7174594   0.6776987  -0.7454556  -0.8106888
  -0.0523484  -0.0170590  -0.1421230  -1.2182286  -0.0195000  -0.8666136
   0.4747306   0.2594309  -1.4881698   0.3806336   0.0544900   0.3655021
  -0.2842501   0.0962105   0.6314456  -0.7927543  -0.2097023  -0.2367857
   0.0781236   0.2736353  -0.1391162  -0.5985662   1.2313975   1.0842894
   0.2777230   0.0091584   0.4940976   0.0278495   0.1666291  -0.0336626
   0.0499808  -0.3195671   0.1793404  -0.3873650   0.5718710   0.1669886
  -0.1759294  -0.1897672  -0.0280461  -0.8512576  -0.1444078  -0.7146589
  -0.1529442  -0.2008961  -0.6512534   0.0480607   0.0466271  -0.2532992
  -0.3927246   0.3164108  -0.9091666  -0.5190795   0.1999206   0.0512813
   0.0724545   0.0839028  -0.1042167   0.4489031   0.3530274  -0.4999921
  -0.8045688  -1.0695637   0.6481691  -0.0702957   0.1402678  -0.0274872
   0.0572913  -0.4285638  -0.7035821   0.3977940  -0.6162121  -0.8559841
   0.3016677   0.2096317  -0.1271233  -0.5570240   0.3468580  -0.6372352
   0.0728041  -0.6109586   0.0476259  -0.1051192   0.2111458   0.0111770
  -0.9303035   0.0995467  -1.5594243   0.8427322  -0.0664056   1.1435037
   0.0928903   0.0608520   0.0061839   0.1957946   0.0292007   0.0381797
  -0.1583726   0.1901201   0.0281379   0.1297896   0.1062676  -0.2768233
   0.5294339   0.9557026  -0.3077153  -0.3171235   0.4306592  -0.7127992
  -0.2341085  -0.2356123   0.2493996   0.9257070  -0.6548670  -0.7147723
   0.8411359  -1.0066446  -0.1268052   0.2737054   0.0408876  -0.3796703
   0.5027661   0.0161455   0.1498235  -0.0058349  -0.4270266  -0.3328673
   0.2054289  -0.2712595  -0.0439731   0.5298585  -0.0373691   0.1516857
   0.1204646   1.2842508   0.3086005   0.1417051   0.0881024   0.3947175
  -0.2865253  -0.3249864   1.1170173  -0.2793502  -0.2854442   0.8312793
  -0.0610618  -0.1354502  -0.1314606   0.1871406   0.0218758  -0.3323928
  -0.3715942  -0.6429615   0.5474532   0.3428058  -0.0550388  -0.3903109
   0.6340636   0.3728882   0.0080120   1.0849963  -0.8005368  -1.1746843
  -0.0169272   0.0479897  -0.0345003   0.4788303   0.5069687  -0.7434652
  -0.3674011  -0.4952346   0.9758589   0.1438125  -0.1709739  -0.0412661
  -0.4318659  -1.0239297  -1.7248599  -0.1836567   1.0567887  -0.7170550
   0.0005484   0.1092796   0.3611149  -0.0115004   0.0980133   0.4034996
  -0.0188170   0.0551241   0.3020123  -0.2609059   0.0702854   0.0392594
  -0.4508494  -0.6283933   0.0270929  -0.1509263   0.2304265   0.0613358
   0.1102664   0.1956657   0.2233745   0.6310193   0.0943068   0.1342165
  -0.0127069   0.7378659   0.4470288  -0.1915542  -0.0804109   0.0121125
   0.1431637   0.1887921  -0.9298098   0.4374927   0.6611608  -0.2676819
  -0.0033520  -0.0097924  -0.2484831  -0.3649530  -1.0491234  -0.5991914
  -0.1160258  -0.4437016  -0.3939173   0.0832747   0.1284746   0.1188408
   0.0915396   0.4935675  -0.5019387  -0.6117021   0.1142458   0.2418769
  -0.1003964  -0.0116368   0.0927255   1.0179103  -0.0405388  -0.4037025
   0.1661711  -0.0888609  -0.1260092  -0.1787135   0.0809713   0.1442399
   0.1976129  -1.0257615  -0.7836661  -0.3603779   0.8671652   0.4235865
   0.0161392   0.1038704   0.0574249  -0.1045778   0.5081741   0.3544082
   0.2607807   0.2141177  -0.3288668   0.1653356   0.0716125  -0.3430112
  -0.2770153   0.0359516  -0.6647498   0.0653593   0.3996567  -0.4075052
   0.0981557  -0.1871043  -0.1071209   0.2660381   0.3555625  -0.0237922
  -0.1336194  -0.7370122   0.0459767   0.4361867  -0.1100503   0.1750376
   0.9512495  -0.4448627   0.5110078   0.0016373   0.9907881   0.4630514
   0.3365730   0.1782522   0.1689652   0.1029851  -0.5177015  -0.1600755
   0.7447407  -0.7247816   0.6637059   0.3133854  -0.0460307  -0.1092382
   0.7541728   0.3251758  -0.1080124   0.8479970  -0.2313525  -0.6367144
   0.1780832  -0.3524993  -0.2142623  -0.3058093   0.2300087  -0.3781015
   0.3661198  -0.6212117  -0.1738251   0.0104013   0.0722679   0.2866614
  -0.3851575  -1.4491610  -0.4848503  -1.2191704   1.0388292  -0.5300846
  -0.1993759  -0.1327985   0.1411894  -0.0905236  -0.0665898  -0.2482040
   0.1461650   0.5156769   0.3186378  -0.1801554   0.2724437  -0.0522718
   0.2765363   0.1916489   0.4624529  -0.5742619   0.1949998  -0.3451280
   0.0872515   0.1093473  -0.2116817  -0.0343514   0.2200898  -0.2606685
  -0.0534104   0.4285372  -0.2820567  -0.0133606   0.1930324  -0.1566296
  -0.1529894   1.0158453  -0.6647341   0.0860473  -0.3182066   0.1578685
  -0.1664638   0.1110942  -0.1619180   0.4027721  -1.3357573  -1.2916049
   0.1591266   0.2367408  -0.4822814   0.3762277  -0.1617638  -0.3749973
   0.0728832   0.0090328   0.7712679   0.3382168  -1.2828477  -0.3298621
  -0.1317198  -0.5054408  -0.3337262  -0.8327375  -0.5911119  -0.2320622
   0.6891437  -0.1996208  -0.9648341  -0.3629168   0.0591798  -0.0222656
   0.0644222  -0.4958556   0.8438665   0.4773751   0.7610870   1.4908354
  -0.0204797   0.2573402   0.1022619   0.0189544   0.3954490   0.1561790
   0.2722565   0.6890606   0.2793834   0.1057723   0.4008070   0.1035617
  -0.2968684   0.0510363   0.1234251  -0.3841592   0.4767000  -0.4046952
   0.3281450  -0.0684931   0.0114844  -0.1332368   0.1092770  -0.2575518
   0.3301858   0.0609139   0.1612098   0.1815511  -0.0260470   0.0041506
   0.2244709   0.2690714  -0.5468037   0.4254158   1.1249403  -0.2350575
  -0.4216680  -0.2343673  -0.0319701  -0.8293514   0.0173915  -0.1139290
   0.1840572  -0.6678439  -0.1236683   0.0867907  -0.5504341  -0.0034509
   0.1817887  -0.4469816  -0.6329809  -0.1338278  -0.3847102   0.8068199
  -0.2043244   0.2515670   0.1889094   0.9276158   0.4671821  -0.5038835
  -0.9321542   0.0721468   0.5661755  -0.0280018  -0.3395871  -0.3398741
   0.0708946   0.6901092  -0.7912016  -0.0924007  -1.0237565  -0.0895104
   0.0192850   0.1262244   0.2465640   0.7265908  -0.1822222   0.4465621
  -0.4956720  -0.4840843   0.3448109  -0.0848914  -0.3339205  -0.2368740
  -0.8755481  -0.6142016   0.0358922  -0.1491409  -0.9213854  -0.3183048
   0.0294050  -0.0690796   0.0556099  -0.0811415   0.5624857   0.8041835
  -0.0438838   0.0905714   0.1529467  -0.3459840  -0.1311028  -0.2054048
   0.1239560  -0.7351708   0.2625974  -0.1600678   0.1319326   0.7449865
   0.1537500   0.2920651  -0.0885038  -1.4703791   0.4769602  -0.0493345
  -0.3802287  -1.0508689  -0.3481563  -0.1288290   0.3189938  -0.1111608
  -0.1550641   0.6150815   0.4576066  -1.6119739   0.3456361  -0.3103978
   0.1288683  -0.0189250  -0.0308601  -0.0981387  -0.1736737  -0.1418535
  -0.8584399  -0.7295549  -0.5148009  -0.1538086  -0.0302865   0.3240718
  -0.2585740  -0.2048086  -0.2836802  -0.4788485  -0.0304016   0.3572835
  -0.1827797  -0.0223099  -0.1314076  -0.1737967   0.1704887   0.3088681
  -0.7115403  -0.3362450  -0.2349418   0.0063460   0.1694056  -0.1816114
  -0.3563858  -0.2807627  -0.5142657   0.4454177  -0.2763517  -0.8163026
  -0.0023916   0.2633142  -0.2871526  -0.2719499  -0.2253774   0.9094664
   0.3303587   0.7384896  -1.3024915  -0.2912319   0.0056135  -0.2632969
  -0.7684693   1.3348044   0.8309767   0.3994290   0.2661955   0.2116692
   0.0701486   0.0263261   0.0259229  -0.3417847   0.6005403  -1.3631794
   0.0258468  -1.3197275  -0.1093250  -0.0569176   0.0282014  -0.1161139
  -1.7344524  -0.1366349   0.3133606  -0.7362267  -0.7935290  -0.2730053
  -0.0836981  -0.0214860   0.1817349   0.0416685   0.5801798  -0.0126923
   0.7454083   0.8208706   0.1718132  -0.0544959   0.0415342  -0.2271345
   0.6827997   0.6108917   1.0693523   0.4177508   0.8349254  -0.8960608
  -0.0041165  -0.1208407   0.2440862   0.1086203   0.2392530  -0.0029111
   0.4398247  -0.6766331  -0.0538198  -0.2248705   0.1644795   0.0133291
   0.0035552  -1.4802356   0.1250325  -0.7799065  -0.0880184  -0.9488975
   0.0354550   0.1089761   0.2928032  -0.2169667  -0.8703144   0.1819040
  -0.0256380   0.1755225   0.2048408   0.0806904  -0.0367300   0.0085873
   0.2082628  -0.1192596   0.1916079   0.2801051   0.1003986  -0.6505846
  -0.1852142   0.0375642   0.0777185  -0.7822085  -0.3081299  -0.6914807
  -1.2101498  -0.4489759  -0.8513207  -0.3578702  -0.0663066   0.2352625
   0.9229466   0.6815088  -0.4105980  -0.7824387  -0.4789386  -0.3681184
   0.2539299   0.3316350  -0.0525034  -0.0788875   0.3937241   0.9920246
  -0.4228742   0.6265100  -0.6544092  -0.0617218  -0.1917917   0.1470887
   0.5326638  -0.3197903   0.0154900  -0.3881782  -0.5715007  -0.2224765
  -0.1411265  -0.0960238   0.2338134   0.5516918   0.3580060   0.5887712
  -0.1318315   0.5313945   0.5441867  -0.0683847  -0.0560571  -0.0452242
   0.2859707  -0.0658932   0.4513670   0.1394815   0.2513050   0.1832396
   0.1731535   0.1993996   0.1339487   0.7474292   1.3509186  -0.4755856
   0.2589486   0.8236090  -0.0437296   0.0985092   0.2052577   0.1413419
  -0.2694176   0.1856571   0.1940021  -0.0050162   0.2040334   0.5573316
   0.2267541   0.0675517  -0.0653582   0.6271939   0.3771496  -0.1168161
  -0.1852386   0.7673356  -0.2866382  -0.0687846  -0.1728939  -0.3364756
  -0.2952159  -0.2256875  -0.1791825   0.0548209  -0.4311825  -0.1632210
   0.0660755  -0.1057405   0.1480110  -0.1199991  -0.4949807  -0.3380160
   0.4450308  -0.0210668   0.3240770  -0.3932153  -0.0614102  -0.0257178
  -0.1671869  -0.1762326   0.2448978  -0.2683720   0.3059616  -0.2369482
  -0.1448646   0.0112961  -0.3133191   0.0171149  -0.2941981  -0.2052023
   0.7659175  -0.0841069  -0.6867383   0.1558226  -0.1712999   0.1153351
   0.0806326  -0.4532163  -0.2638097  -0.2532310  -0.5441375  -0.6802294
   0.2303911  -0.0275866  -0.0579050  -0.1520008   0.0806436   0.0623859
   0.4600682   0.2305198  -0.4034740  -0.0171710   0.7313478  -0.1077035
  -1.4859212   0.1396492   0.1523157   0.8197276  -0.4376745  -0.5932826
  -0.0188861   0.4712891   0.2547559   0.5315911   0.5334304   0.7918110
  -0.6895210   0.3679262  -0.5146095  -0.0159966   0.0816886   0.3829049
   0.0188168   0.0652894   0.3451534  -0.1644699  -0.5960746   0.7156076
   0.3672064  -0.2784938  -0.0163839   0.0386898   0.4874116  -0.1818737
   0.1058926  -0.2378933   0.0943219  -0.0305538   0.1412152  -0.0469991
   0.3733056  -0.5762357   0.3292829   0.3842475  -0.0202337   0.2067085
   0.0417233  -0.4755587   0.1218552   0.2116654  -0.1902319  -0.0738065
   0.2433288  -0.3604934   0.3810993  -0.0797949  -0.1616248   0.0856946
   0.1290094  -0.6226817  -0.9085078   0.0945820   0.0883696   0.1336735
   0.0969725   0.1183144  -0.0814870  -0.9763952   0.2193712   0.8057093
  -0.6596053  -1.3265369   0.8112838   0.5417551   0.0583570  -0.0800674
   0.5027996  -0.0306966  -0.0891425   0.6998641   0.5479382   0.0865595
  -0.2556743  -0.1400388  -0.0063610   0.5436141   0.1620633  -0.9943876
   0.0746146   0.4194454   0.1968717  -0.2051940  -0.0788904  -0.3456313
  -0.2405881  -0.3788768   1.1211254   0.2375572   0.6688941  -1.2912913
   0.4468299  -0.0201293   0.0618739   0.3453164   0.7246160  -0.1084071
   0.4864929   0.1217391   0.1207535  -0.1587593   0.1205168   0.0938715
   0.0854161   0.0948407   0.7749446   0.2146771   0.0615489  -0.2501092
   0.1476729   0.1502724  -0.1738245   0.2145852   0.1467080   0.0563184
   0.0877805  -0.0406644  -0.2687210  -0.0264205  -0.4866254   0.3572049
   0.3161686   0.0172652  -0.4689437   0.4168968  -0.9979368  -0.6649931
   0.0549984  -0.1184923   0.1157061  -0.2997490  -0.2245732   0.3639737
  -0.1203836   0.3528572   0.1263307   0.3417320  -0.2511581  -0.4251427
   0.0079506   0.2206074   0.6059043   0.5842288   0.4728349  -0.2604236
  -0.0968661  -0.0727695   0.0204067   0.1577618   0.4237423   1.0925415
   0.2246467   0.4555189  -0.1353016  -0.3004012   0.3384835  -0.1828692
  -0.2743523   0.1018406  -0.3340441  -0.9619960   0.7599583   0.6276158
  -0.0449847  -0.2244100  -0.4937077  -0.6542285   0.1397781   0.7393420
  -0.3914796   0.1005120   0.3975222   0.0323711  -0.1765603   0.1410280
  -0.0065244   0.1372955   0.3476512   0.3822555  -0.3764847   0.2762689
   0.1650901   0.2840354   0.0755399  -0.0049488  -0.1679172   0.0194235
   0.3505547   0.1525553  -0.0011857   0.1851556  -0.2202142  -0.2440405
  -0.2900046  -0.6325761  -0.7779369   0.2783897  -0.3307170  -0.3707049
  -0.5592293  -0.2527420   0.0992396  -0.4798458   0.3755192  -1.1721196
  -0.6042588  -0.3899518  -0.1259730   0.0450402  -0.1451912   0.1263252
  -0.7538237   0.3287460   0.0524274   0.1712404  -0.3863272   0.3833187
  -0.2548399   0.2385221   0.0433340  -0.1736793  -0.4974543  -0.0992049
   0.1678308  -0.4414583  -0.9552990   0.0146716  -0.0790295  -0.0838667
  -0.7532074  -0.8266105  -0.4351376  -0.2254868   0.2126121   0.4360641
   0.0971910  -0.4187544  -0.0210971  -0.1375107  -1.0122797  -0.0934844
  -0.2442933  -0.3030016  -0.1687950  -0.1244775   0.0885418  -0.2459982
  -0.0125200   0.5486798  -0.4401448  -0.4805230  -0.4431495  -0.8852072
  -0.1642160  -0.0811300   0.0647539   0.2280306  -0.2286318  -0.1753871
  -0.5744789  -1.0531488   0.0713762   0.0368024   0.2166401   0.1402479
  -0.3071419   0.4710195  -0.8391403   0.3793337   0.2934949  -0.2250488
   0.0471808   0.1444717   0.4789067   0.4952104   0.4634175   0.2805708
   0.7452886  -0.4868036   0.6085211  -0.0234626   0.1794937  -0.2849143
   0.1979729  -0.5304142  -1.3695506  -0.8341017  -0.6313396   0.0751721
   0.1472471  -0.0819151  -0.1653986  -0.4450860   0.5258173  -1.2599196
  -0.3143161  -0.5454626  -0.5805749   0.0519811   0.1811425  -0.1094589
  -0.6601609  -0.1883755  -0.2434706  -0.2721338  -1.0065735   0.3245082
  -0.0743862  -0.2119407   0.1060540  -0.0975597  -0.2119789   0.0268329
   0.4189907  -0.1037767   0.2713560   0.0447197  -0.2071447  -0.0659678
   0.3174994   0.3875632  -0.0468875   0.0932626  -0.4030350  -0.6239543
   0.1649885  -0.2317914  -0.2573050   0.2609529  -0.2795387  -0.2573268
   0.0826444  -0.3413363  -0.1280469   0.1491446   0.0663480   0.1494484
   0.3951252  -0.1565973  -0.2152591   0.3005343   0.0192155   0.2755145
  -0.2997352   0.2768558   0.1587188  -0.4694559  -0.8152321   0.5480559
  -0.7167102   0.8768291  -0.1612398   0.0142067  -0.0840830  -0.2353421
  -0.3762297   0.1199011   0.4155865   0.0251051  -0.3066835  -0.2698737
   0.3173935   0.2562098  -0.0419771   0.4402188   0.0635373  -0.1187575
   0.9611575  -0.8858388  -0.2769237   0.3565989   0.0695793   0.0131796
  -0.3431654  -0.2387620  -0.8847992  -0.2079736  -0.0099243   0.6157639
  -0.1197699  -0.0335935   0.0517918  -0.8739374  -0.5909343  -0.2916648
   0.7523714   0.6965651   0.2817712  -0.0513852  -0.0561905  -0.1123611
   0.2918220   0.3567205  -0.1053023  -0.7217340  -0.1702117   0.5573252
   0.0035226   0.0047008  -0.0206333   1.1644471   0.3970018   0.8529100
  -0.1391752   0.3003811   0.3112470   0.0566097   0.1032174   0.0159037
  -0.0810015   0.2280336   0.1499466  -0.6957825   0.3493741   0.9915864
   0.2164329  -0.2777122  -0.0997244   0.4763566  -0.1871008   0.1109183
   0.1575047  -0.4642561   0.1318149   0.0847669   0.0274511   0.1127995
   0.4386153   0.5995009   0.3141569   0.1140834  -0.3090325   0.0646970
   0.0065032  -0.0415182  -0.4242834  -0.9796642   0.7024508   0.9788812
   0.5570750  -0.5244152  -0.2067860   0.1208705  -0.0884478  -0.0259239
   0.1468092  -0.0657429  -0.1064732   0.1112912   0.6184540  -0.3984090
   0.0234280  -0.2213974   0.2798795  -0.9236996  -0.3778759   1.1239523
   0.7157615  -0.1109533  -0.2880814  -0.1809199   0.1822899  -0.1951033
   0.0591840   1.0878982  -0.0654674  -0.1102350   0.6066008  -0.0483716
   0.1714905   0.2234360   0.0349327   0.9990971  -0.2067077  -0.5881844
  -1.5792913  -0.8852375  -0.1859032  -0.4083422   0.2812383   0.0819879
   0.4658598  -0.6299063   0.1393845  -0.1782396   0.9827920  -0.7218722
  -0.0872212  -0.2295740  -0.1064289  -0.3322229   0.9752398  -0.0007730
   0.3705447   0.2913348  -0.7595447  -0.0525631  -0.0307361  -0.2145222
   0.7591360  -0.3707030  -0.4076828  -0.1271204   0.4353929   0.8056238
  -0.1403361   0.5241960   0.0161857  -0.0399216   0.0480023   0.1439865
   0.1777748   0.4466883  -0.5075768   0.1155811   0.0188422  -0.2412492
   1.3281008   0.0830862  -0.3860344  -0.3698597  -0.6515574  -1.1948379
  -0.1264333   0.1741058  -0.0503844   0.2840571   0.4130394  -0.2997979
  -1.3150132  -0.7446490  -0.5517674   0.2257145   0.0683882  -0.1247423
  -0.6051980   0.5309434  -0.1973951   0.1530783   0.0010693   0.5413193
  -0.1969890  -0.3292151   0.1589886  -0.1216768  -0.8365659   0.1373001
   0.0142625  -0.1842310  -0.3318591  -0.1163486  -0.1455503   0.4023403
  -0.6434003  -0.1154470   0.2553544  -0.2361105   0.1351843  -1.7227695
  -0.0764807   0.1263560  -0.0696310   0.0961255  -0.1910499  -0.5368153
   0.2088033  -0.4051909  -0.8484852  -0.0706479  -0.0449071   0.1273448
  -0.1451180   0.0018220  -0.1728129  -0.0117230  -0.2923619   0.1497441
  -0.1230654   0.1615870  -0.3486563  -0.1790869  -0.3774913  -0.6949752
  -0.3294085  -0.6629288  -0.9659507  -0.1295558   0.1255283  -0.2077436
   0.6581318   0.5393896  -0.2784027  -0.5363752  -0.0058328  -0.1142083
  -0.2733337   0.0739910   0.1137878  -0.0536802   0.0324857  -0.0909745
   0.3820184  -0.4095537  -0.1372713   0.0317253  -0.0424464  -0.1376465
   0.4105834  -0.4922418   0.8481438   0.5357004  -0.8279201   0.5161546
  -0.3136446  -0.0754035  -0.0571492  -0.1294434   0.4272163  -1.3922467
   0.0360639   1.3390009   0.7986262   0.1011550  -0.1124589  -0.0970525
  -0.1081773   0.1362988   0.4703839  -0.3099179  -0.4959884  -0.5948292
   0.2012003  -0.2101861  -0.0030785   0.8507024  -0.4567849   0.1210207
  -0.0232320   0.4193286   0.5267350  -0.0169516  -0.1461362   0.1150555
   0.6672698   0.6591794  -0.5494244   1.3100103   0.6121867  -0.1278039
  -0.1604592  -0.1380161  -0.3373302   0.3127677  -0.5220884  -0.9488981
   0.0721886   0.6471194  -0.3905307  -0.1017970  -0.0979742   0.0815305
   0.3612751  -0.5012984   0.0276366  -0.5566502  -0.6608971   1.2174309
  -0.4331227  -0.3629222  -0.0002423   0.4488618   0.5703728   0.6353207
  -0.4909646  -0.2869160   0.1045950   0.1789016   0.5841365   0.0488301
   0.3734894  -0.3331763   0.1406376   0.1274807   0.5207409   0.6083628
  -0.1430795   0.1471637  -0.2303766   1.1856470  -0.5750939   1.1294335
  -0.5988158   0.0935217  -0.6413208   0.1771244   0.1459264  -0.2804084
   1.0510990   0.4957123  -0.3347641   0.2462935  -0.7226013  -0.1733276
  -0.1890806   0.3039784   0.2894468  -0.4811892   0.1009326  -0.2120496
  -0.0130648   0.5839436  -0.2630589  -0.0091390   0.3404808   0.1651984
   0.3049504   0.4576085   0.0649365  -0.0316171   0.3457212   0.2452191
  -0.1656551  -0.0532737   0.3621749   0.8517967  -0.8209290   1.6289512
  -1.1862429   0.1236875   0.4560319   0.1478842   0.2474905   0.2717253
  -0.8476276   0.1004743  -1.1171083   0.3929025   0.4964786  -0.5880674
  -0.3789466  -0.1046191   0.2519008  -0.3941249  -0.0914398   0.2947006
   0.3777758  -0.4148268  -0.0463895  -0.0393410  -0.2299171  -0.1979180
   0.8412693  -0.7386244  -0.1860151  -0.4583448  -1.0553989   0.0672764
  -0.1055372   0.0450783   0.3642832   0.1877619   0.7768857   0.8717515
  -0.3884318  -0.8295920  -0.4752676   0.1219901  -0.0366464  -0.2102223
   0.0642739   0.5479731  -1.2915909  -0.3256528   1.1300178   1.0014934
   0.1981669  -0.1941137  -0.3021340  -1.0550677  -0.7168747  -0.6749755
   0.3693703  -1.3375878   0.3088357   0.1974903   0.0689786   0.2101100
   0.4648549  -0.2604400   0.0455843  -0.6927596   0.3196471   0.1133159
   0.1399269   0.0098671   0.0146107  -0.2130781  -0.1916971  -0.9523408
  -0.3019545   0.7560002   0.3393920   0.0322382   0.2792567   0.1611374
   0.2331584   0.1266527   0.3407226  -0.9399764   0.6399300  -0.4993627
   0.1992525   0.2114976   0.0823949  -0.2780228  -0.8459007   1.2623924
  -0.5238673   0.4037851   0.2070754  -0.0337678   0.3895657  -0.1666607
   1.0519892   0.3122317   0.4253591   0.8175623   0.4399425  -0.0724260
  -0.1102622   0.0216445   0.2608136   0.0807256  -1.3185241  -0.6380414
  -0.5984590   0.0191227  -0.5339648  -0.0616328   0.1159168  -0.3168313
   0.2284930   0.1474429  -0.3938202  -0.1776084   0.1235684  -0.0088414
   0.3363278   0.1630302  -0.2071196   0.4136771   0.0326852  -0.1854183
   0.3557323   0.1974464  -0.3487830  -0.0966553  -0.1147957  -0.1979130
  -0.3567403  -0.4781393  -0.2217412   0.0285855   0.1025744  -0.1995356
   0.2768669  -0.1575306  -0.0247303   1.1105824   0.4000282   0.6009218
   0.4344336  -0.4335493   0.0966420   0.1337593  -0.0422412   0.3256468
   0.4625766  -0.4656008  -0.1221937  -0.2941442   0.6299333   0.9620626
   0.1164919  -0.1497720  -0.2866662  -0.2964507  -0.0740125  -0.1908106
  -0.2646089  -0.2198975  -0.0530524  -0.0145746  -0.1467765  -0.2133679
   0.8859913  -0.3665007   0.0459509  -0.3473454  -0.2982901   0.5438848
  -0.2394023   0.0630015   0.1826268   0.0420480   0.0848208  -0.5752275
   0.8378160   0.2241745  -0.3446746   0.1265557   0.0734376  -0.1333128
  -0.3601763   0.4315872  -0.2694880   1.4692661  -0.5749881  -0.6833181
  -0.2316734  -0.2952194   0.4381425   0.1019807  -0.2408534  -0.2249218
  -0.5740633  -0.3137120   1.0187022  -0.1529217  -0.0699575  -0.2248705
   0.6307898   0.1776894   1.5573075   0.5329288   1.3328094   0.4189371
   0.0343264   0.0286765   0.1874926   0.1025099   0.1827776  -0.0633297
   0.0944112   0.4475448  -0.7063020  -0.0787917  -0.0627813  -0.2198519
  -0.0013698   0.1753994  -0.7877920  -0.3841408   0.0162887   0.2568168
   0.0846010   0.4814164   0.0531937  -0.0315386   0.4431002   0.2942427
   0.1545227   0.4812744  -0.1070700   0.1065797  -0.0364790   0.1728902
  -0.2455194  -0.9033391   0.5809879   0.5409804   0.8537678   0.0675790
   0.1608955  -0.0800317  -0.0317405   0.0227083  -0.1827917  -0.1753258
   0.6686143   1.0217301  -0.5152891   0.0662219   0.2346108   0.2237811
  -0.0029154  -1.3071985  -0.9575087   1.0186595  -0.4868739  -0.0065231
  -0.2320842   0.0303014  -0.1813551  -0.1877272  -0.4650818  -0.6092127
   0.7270385   0.5073815   0.1959519  -0.0514334  -0.3321842  -0.1356828
  -0.4864306   0.4870245  -0.1411908   0.1721941  -1.8017477   0.0112331
   0.2657390   0.1335989   0.1928853   0.4472489  -0.5023448  -0.2688177
  -0.1773813  -0.1753558   0.4513962  -0.0401661   0.2249797  -0.1711967
  -1.3025161   1.0489753  -0.6032664  -0.7904972   0.2002598  -0.3368695
  -0.0686280  -0.3132247   0.1164445  -0.0487995  -0.3474876  -0.0186529
  -0.1722740   0.1053092   0.6917495   0.1423964   0.4224487   0.0231622
  -1.5684589   0.2424048   0.0375591   0.7469829   0.9331970   0.3587139
  -0.0212168  -0.2406089   0.1237107  -1.3134429   0.9114479  -0.2165980
  -0.3246219  -0.5818637   0.3720835  -0.0230027  -0.0800166  -0.0132896
   0.0961250   0.5651858   0.1840626  -0.4149584  -0.0478609  -0.8039374
  -0.0295261   0.1394144   0.0951901  -1.6570829   0.2461927  -0.1467515
   0.0123463  -0.6098823   0.6181452   0.0182097  -0.2021604   0.0294415
  -1.0294691   1.6300546   0.4655352  -0.7067492  -0.3600693   0.6740554
   0.0489414  -0.1657835   0.1925948   0.4164728  -0.5596050  -0.1355756
  -0.0988865   0.9456286   0.8481695   0.1507296  -0.2386638  -0.0215270
   0.1481820   0.9483878  -1.5107996  -1.4146110  -1.5881150  -0.1118673
   0.1058897   0.6548949  -0.1601301  -1.2943884  -0.5928133  -0.5514374
   0.7736577  -0.0132643   0.0997513  -0.4406586   0.0241372   0.0742571
  -0.5861265   0.2177963   0.1101246   0.5102508  -0.4549520   0.0139998
   0.1496196   0.0037408  -0.1385249  -1.1566638  -0.4912695  -0.5574860
  -1.1435620   0.4379243  -0.2231426  -0.1314424  -0.2068175   0.1511332
   0.6477758  -0.7111902  -0.8636748   0.7046132  -0.6110049   0.0008324
  -0.1695070   0.0532591  -0.1956127   0.4139628   0.4669029   0.6646729
   0.1098817   0.2207296   0.4784095  -0.0132310  -0.2408967  -0.2598909
   0.2475703   1.1812401  -0.4791615   1.4097278  -0.8444638   0.0375534
   0.0984916   0.1851982   0.0899554   0.1684307   0.2874156   0.1681695
   0.1198510  -0.1221057   0.1859110   0.1194988  -0.0722145  -0.1890631
  -0.6040629  -0.3686257  -0.3388047   0.3527887  -0.0549687   0.3167541
  -0.0281171   0.1162571   0.2701917  -0.3288507   0.1321447   0.8051570
   0.2530963   0.9740243  -0.3262266   0.0120968  -0.0071308  -0.0399301
  -0.2177696   0.7427596  -0.0718256   0.2459219   0.2442175  -0.3766902
  -0.0398040  -0.1126523   0.1197103  -0.4301632   0.7528171   0.4377057
   1.0717740   0.5449610   0.0324484   0.2219520  -0.0297521  -0.0851678
   0.0179691   0.8972464  -0.6100087   1.3085433  -0.1573966  -0.2704424
   0.1137602  -0.2192311   0.1549982   0.1138598  -0.9367694   0.1152528
  -0.7097290   1.4319553   0.7593762  -0.1944176   0.0548709  -0.0803997
   0.0476498  -0.6013338   0.1782610   0.3115947  -1.3428529  -0.8277069
   0.1313807  -0.2263446   0.1048996   0.0162235   0.0110874   0.0193010
  -0.0536980   0.1582396  -0.0513123  -0.1225162  -0.1976500   0.3851395
  -0.2046252   0.5584661   0.0019710   0.5388975   0.9718241  -0.1065353
   0.1112584  -0.2394679  -0.2883029   0.0765562  -0.7360134   0.5454830
   0.0564901  -1.0458635   0.1986135  -0.0455907   0.0658542   0.1520680
  -0.4626480   0.9309583  -0.2443238  -0.2099045   0.5602495  -1.8001318
   0.0809104  -0.0472175  -0.0380542   0.7937197   0.2069805  -0.0402633
   0.5152150  -1.1572030  -0.4035212  -0.0210933   0.0082124   0.0253772
   0.6348969  -0.5165922   0.0385875   0.2096752  -0.3046854  -0.2430939
  -0.0615316  -0.0524044  -0.0956535  -0.2104350  -1.1676963  -0.2486093
  -0.4889303   0.1010453  -0.2292524  -0.0362723   0.0591053   0.2765787
  -0.0362025  -0.8993139   0.1030915  -0.0660620  -0.3372438  -0.5171059
  -0.1990029  -0.0878321  -0.0522110  -1.4303409   0.3574739   1.5838131
  -0.3468261   0.2469379   0.3017520  -0.3383573  -0.0258788   0.1428842
  -0.1984699   0.1087887   0.4564779  -1.1817331  -0.7749828   0.0818547
  -0.2175343  -0.3012764  -0.2396088  -0.0060767  -1.2443330  -0.0288869
  -0.8300498   0.3337070  -0.0048166   0.1382401   0.1669853  -0.0917452
   0.0974079  -0.5071962   1.8889471  -0.0128878   0.1552297  -0.3946547
   0.0398852  -0.5409332  -0.0703788  -1.1680733  -0.9360010  -0.4138379
   0.6303485   0.7821033  -0.1268582  -0.1068250   0.1342213   0.0825845
  -1.4077994  -0.6976506   1.3386423   1.0144535   0.5982912  -0.1210653
   0.5142882   0.0100562  -0.1459953  -0.2706768   0.2647358  -0.0083478
  -0.0077330  -1.3780709  -0.1616626   0.0259563  -0.0892563   0.0676875
  -0.4050268   0.9583302  -0.0481480  -0.2886055   0.4833414  -0.0505506
   0.1189153   0.1011522  -0.1367764  -0.0124994   0.1085027   0.2765520
  -0.0777375   0.9302263  -1.3953849   0.2289497   0.1503236  -0.4645879
   0.0751037   0.7816285   0.4366451   0.5039843   0.6382922  -0.7597915
   0.1725381   0.0183953   0.2795441   1.6105642   0.8706859   0.3032904
  -0.7431430   1.4432185  -0.9024716  -0.0716191   0.2922096  -0.0418617
   0.3460067   1.2885422  -0.0860785  -0.1836769  -0.0343176  -0.0271884
   0.1480335  -0.1099146   0.2205524   0.9537884  -0.4547965   0.2987196
  -0.7900884   0.1102202  -0.3068679  -0.1801877  -0.1026958   0.1157658
  -0.3714444   0.8746189   0.1554570   0.0300379  -0.5356690  -0.0841181
   0.0485853   0.1369982   0.2138819  -0.5958772   0.2848175  -1.3624257
  -0.3601199   0.5253554  -1.2197684  -0.2903909  -0.1249262  -0.0765315
   0.0062550  -0.6897228   0.5438434  -0.5520670   0.2851726  -0.6874229
  -0.0178710   0.1734831  -0.1669034   0.4215576  -0.1804411  -1.0888798
   0.4794630   0.1528000  -0.0242733   0.1390781  -0.0353238   0.0435945
  -0.4955365   0.3466246   0.8271821  -0.0149111  -0.4704698  -0.4660583
   0.3044489  -0.1129804   0.1817214   0.2053898   0.0032035  -0.5756130
   0.2344042  -0.0413071  -0.3136974  -0.2837159  -0.1943101   0.0808248
  -0.2968578  -0.2722949   0.0430748  -0.2515114  -0.3431111   0.2294438
  -0.1560083   0.0198961   0.0454264  -0.9223982   0.0158830  -0.2078415
  -0.1979210   0.3665360  -0.3120732  -0.0630533   0.2274059   0.1080507
  -0.1816191   0.2755878  -0.0149770  -0.0242840   0.4858385   0.1446500
   0.1319349   0.1371024  -0.1171600   1.6176703  -0.2992793  -0.2254052
  -0.7891462  -0.4136430   0.0628222   0.1429367  -0.2905090  -0.0988462
  -0.1608890  -0.8066987  -0.1467413   0.5734280  -0.4926678   0.1072900
   0.3228941   0.2162230  -0.2358985   1.4821329   0.0891592  -0.1240792
   0.2005653   0.1740751  -0.1735863  -0.0537462  -0.1858481  -0.1574993
  -0.2045705   0.5957741  -0.6062421  -0.1842413  -0.4302924  -0.1480251
   0.0900368   0.1532193  -0.3473498  -0.7330185  -0.2932982  -0.7980285
   0.5763763  -1.0841239   0.6014318   0.1940238   0.0253304   0.1269734
   1.4832580  -0.1479064  -0.5071252  -0.8192700  -0.7610729  -0.7320574
   0.1512096  -0.0638480   0.0821788  -0.0900800  -1.0148726   0.9285728
   0.1092775   0.9699053   0.7432836   0.2872735   0.1188164  -0.2521723
  -0.5052020  -0.0448605  -0.2866694   0.1129431   0.3087909   0.2551046
  -0.4198015  -0.1318146  -0.0696563  -0.4463583   0.3289632   0.0837926
  -0.8369839  -0.5534074  -0.6169031   0.2494090  -0.0712231  -0.3272012
   0.7663981   0.5456410   0.9747047  -0.0646660  -0.0788413  -0.5036247
   0.0022686  -0.0353310  -0.2545654  -0.0051066  -0.0396303   0.4246072
   0.8264909  -0.0648929   0.3739345   0.1488293  -0.2497475  -0.3584090
   0.6574263  -0.1423349   0.9692548   1.0777176  -0.1348764   0.3379594
  -0.0199130   0.0751643  -0.3221864   0.0038712  -0.4045678   0.1404585
  -0.0687975   0.8082157  -1.0460182  -0.1125124   0.0011536  -0.0834367
  -0.4470527   0.2207858   0.5007208   0.8667758   0.5452415  -1.0385664
   0.3960412   0.2807794   0.2165732   0.6515206  -0.6386706  -0.0092417
   1.0346220  -1.2995541  -0.2421358  -0.3597734  -0.0008370  -0.0301793
   0.0430592   0.7812465   0.1498175   0.2314145  -0.4254868  -0.5907735
   0.0533897   0.0234935   0.0884412  -0.7272111   0.2057950   0.3183635
  -1.1767460   0.6075363  -0.7408970  -0.2999041  -0.0415854   0.1721740
  -0.4718867  -0.1478849  -0.0242274   0.6708973   0.1147710  -0.3136549
  -0.2102879  -0.2295199   0.1537541  -0.2798423  -0.2380434   0.0927253
  -0.9674865   0.0396157  -0.8282779   0.0766610   0.0053512  -0.0903844
   0.2313693   0.7093425  -0.1993337  -0.1108541  -0.8858633  -0.0209003
  -0.1084867   0.0818645   0.2344639   0.0426675  -0.3140821   0.3131134
   0.6443367   0.2096754   0.7837399  -0.3272610  -0.0570015  -0.0150893
  -0.0818998  -0.8891541   0.4643860   0.2204428   0.3711094  -0.9841310
   0.1960907   0.0216030  -0.0703289  -0.6098327  -0.1824808  -0.1536457
   1.0527184  -0.5360859   0.6775744   0.1161209   0.0765381  -0.0642669
   0.4119114   0.0872245   0.6850564   0.0239240   0.1184024  -0.0942661
   0.0266619   0.1731165   0.0240737  -0.0332523   0.7496667   0.9526275
  -1.2675967   0.0391766  -0.4119868  -0.2994791  -0.1005470  -0.0416434
  -0.6831641   0.1750247   1.0516286   0.1558040   1.5413707   0.5883494
   0.2251369   0.0952146   0.0097356  -0.4295623   0.2384918   0.4301839
   0.3612694   0.0066200  -0.2634371   0.0547818   0.0060090   0.0918000
   0.9411587  -1.5579857  -0.9334588   0.1675114  -0.1884541  -0.0131483
  -0.0854372  -0.3078607   0.0422383  -0.2270395  -0.2523632   0.9524068
  -0.1600217   0.4367861  -0.1341591   0.1406348   0.0514254   0.0472439
  -0.0873778   0.2394301   0.5710729  -0.4604547  -0.4056054   0.1906360
  -0.0954382  -0.0064496   0.0567371  -0.7558285  -0.0837838   0.7784518
  -0.3937611  -0.5549538  -0.6521925   0.1820100  -0.0441692  -0.0332762
   0.1442280   0.0490367  -0.0406808   0.2287870   0.0652806   0.0332888
  -0.2312583   0.1306115   0.1590695   0.0107917  -0.4049321  -0.2155601
  -0.8174190  -0.1834262   0.6731653   0.0836179   0.0710519   0.0987937
  -0.0031888   0.6278792  -0.0642330   0.3249966  -0.1583574  -0.3511814
  -0.1018559  -0.0769624   0.3837822  -0.3516796  -0.2328155   0.2181042
  -0.4433334  -0.6788679  -0.6183516  -0.1410586  -0.1508541   0.0282705
   0.7708495  -0.2960162  -0.9034462   0.1964976  -0.2181855   0.1671955
  -0.0041883   0.2315030  -0.0484894   0.0699082  -0.8015539  -0.0877659
   1.2958656   0.5050171  -0.1712573  -0.0361564   0.0373753  -0.1420950
   0.1172613   0.1531761   0.0242784   1.1604017   1.1266955   0.0599491
  -0.2710145  -0.1142971  -0.0512994   0.1789924  -0.9914879   0.3993955
  -0.2325590  -0.1178476   0.1283537   0.0837176  -0.0240404  -0.0506590
  -0.2878513  -0.6011202  -0.0213874   0.9243287  -0.4796041   0.2197752
  -0.1381131   0.2159307  -0.2121684   0.3733612  -1.6567518   0.7619673
  -0.5225201   0.7121237   0.3236130  -0.0240974  -0.1341171   0.1035221
  -0.3930128  -1.3472521   0.9538036  -1.3094220   0.3427295  -0.3329111
  -0.0811123  -0.2298593  -0.0681094   0.2547296  -0.3995341   1.1299155
   0.4684551  -0.3610823  -0.0934500   0.0504964   0.1938318   0.1656369
   0.0208735   0.1256291  -0.1305337   0.0804901  -0.9973660   0.8406700
  -0.1667925   0.2982982   0.2904097  -0.1842974   0.2625177   0.2265060
  -0.4247873   0.2457788   0.4392572  -0.3306843   0.1954833   0.1375885
  -0.5771625   0.1081860  -0.4014439   0.1971407   0.2627920   0.1600276
   0.0250755  -0.3000527  -0.2161875   0.6696227  -1.1724212  -0.2491823
  -0.7277601  -0.8325003   1.1870237   0.1818416   0.0458044  -0.2067231
   0.3522148  -0.0576801  -0.3763154  -0.6944925   0.9205078   1.1823689
   0.3040137   0.1862334   0.3273283  -0.2736877   1.0605346   0.3128076
  -0.4124785   0.7144223   0.4516419  -0.1451559   0.0294033  -0.0580803
   0.2653051  -0.0425318   0.2368532   0.0772795   0.2734729  -0.4876505
   0.1200270   0.0820014  -0.1220619  -0.9223362   0.4950473   1.2755912
  -0.3454838  -0.3498898   0.4390453  -0.0072097   0.0242403  -0.0863539
  -0.3105835   0.5837302  -0.3224517  -0.6697022  -0.0786264  -0.0238644
   0.3883712   0.3719091  -0.3182162   0.2029057  -0.3893135  -0.3211930
   0.2332432   0.6053540   0.1932547  -0.1193323  -0.0003386   0.2385993
  -0.2226499   0.6367771  -0.4527588   0.5618658   0.1537862   0.8283974
   0.0264258   0.0358824  -0.1282199  -0.5377056   0.1361604  -0.3315950
   0.0698288   0.4586729   0.3858115  -0.1141614   0.0450813   0.2359905
  -0.3506214  -1.0213736   0.5458588   0.1988049  -0.1035138  -0.0472756
   0.0229702   0.0597724  -0.0684382  -0.4156621  -0.7990722   0.7699350
   0.0162648  -1.0152835   1.0545430   0.3442564  -0.0126882   0.1364628
  -1.4649045  -1.5265816   0.7329296  -0.2592916  -0.7174323   0.3904265
   0.1074002  -0.0488379  -0.0950815  -0.4217547   0.7679957   0.2786298
   0.4282256  -0.8813929  -1.1983546   0.1170318   0.0431357  -0.1569171
  -0.0335254  -0.4553066   0.0578352   0.5431797   0.3866082  -0.5649873
  -0.2205895  -0.1900202   0.2229155  -0.0833382   0.2288338   0.1265755
   0.3121235   1.6757166  -0.5006303   0.0488413   0.1679650   0.3248139
   0.0521304   0.8163726   1.5089847   1.0058924  -0.3392422  -0.1508412
   0.1034015   0.1902280   0.1021921  -0.5033537  -0.5995983   1.2452912
   0.4709977   0.7371116  -0.5344156  -0.0296822  -0.3643018  -0.2003807
   0.1550595   0.3462169  -0.2039485  -0.9409297   0.0988126  -0.2864642
  -0.0684379   0.0365444  -0.1249986  -1.3668661   0.2279497   0.5913893
   0.2357711   1.4193669  -0.3685124   0.3104367  -0.1659830   0.0096287
   0.2655645   0.5102957   0.8746462  -0.0608545  -0.1008146   0.5085449
   0.1825538   0.3554214   0.2741287  -0.0537879   0.4270618  -0.2257092
   0.0782163   0.6077072   0.1371387   0.0388504   0.0335436   0.3036444
   0.0598466   0.2177109  -0.3842277   0.8489536  -0.3893012   0.3559115
  -0.4316602  -0.1508819  -0.1070338  -0.3338612   1.3036656  -1.1694928
  -0.3491141   0.3057409  -0.3501150  -0.1305321   0.0196678  -0.4130778
  -0.0320740  -1.2060819   0.4756971  -0.0828762  -0.4081054   0.1139317
  -0.0482985   0.0492848   0.5121519   0.3797231  -0.4452355   0.4233196
  -0.3846788   0.6138589   0.2091705  -0.0923134   0.1617743  -0.1806501
  -0.0195680   0.0903432   0.0476423  -0.5292281  -0.3985530   0.6508317
   0.0257804   0.0332434   0.0445362  -0.5922601   0.5262319  -0.2448606
  -0.1852780   1.1449131  -0.1641141   0.2163689   0.1406808   0.1446350
   0.4714222  -0.4642080  -0.4043719   0.2877601  -0.0151362  -0.2191682
  -0.1223591   0.0628148  -0.3551059   0.0404766   0.6120797   0.0344026
  -0.0211682   0.2363145  -0.9703218  -0.3653057   0.0905205   0.3393850
  -0.4262406  -1.2008251   0.4395934   0.5932757   0.5289834   0.4300088
  -0.3392944  -0.0998714  -0.1359522  -0.9704623  -0.0720253   0.3381835
   0.9112398  -0.2581509   0.2075288  -0.0810704   0.2094132   0.3054239
  -0.0807253   0.2140533   0.3050564  -0.5698341   0.4521836   0.0979698
  -0.0768977   0.2750605   0.0742415   0.3975291  -0.8000378   0.2200329
   0.0314029   0.3288326   0.5738084   0.0918933   0.2509202   0.1525374
  -0.7115961   0.5739671  -0.2554894  -0.5891091   0.5084518  -0.1879642
   0.2330691   0.2143025  -0.1615309  -0.0499371   0.3517479   0.6136275
   0.7492296   0.3831483  -0.4233405  -0.0333772   0.3627819   0.3111212
   0.4676849  -0.3998547   0.0343884  -1.1815088   0.5872028  -0.0402726
   0.0402653   0.4458111   0.2424397   0.2320801  -0.5394932   0.2327385
   0.0603969   0.4726543  -0.4960597  -0.1075331   0.2840781   0.1855034
  -0.1766456  -0.1448059  -0.0426288   0.3689842   0.3238654   0.1726820
   0.2227318  -0.0636604   0.2881421   0.0961319  -0.5312917   0.0457372
   0.3704412   0.3170909  -0.0929535   0.2080972  -0.0983684  -0.0270946
   0.4772922   0.1295418   0.1793213   0.2066838  -0.9672259   0.6056750
   0.0466044   0.0576197  -0.1834663  -0.0707356  -0.1137315  -0.5466100
   0.1222932   0.0847337  -0.1620499  -0.0979155  -0.1435423   0.2765660
  -0.3818493   0.0538082   0.0035601   0.1775036   0.0720956   0.0841293
   0.3782228   0.0397543  -0.2372293  -0.0921480  -0.0026733  -0.2744543
   0.5885795   0.0719274  -0.1739603   0.2403799   0.3615207   0.2619765
  -0.5811421   0.1191682  -0.1581520   0.5803981   1.1474009   0.9494693
  -0.1191435   0.0938644  -0.3394226   0.3768792   0.2129499  -0.3464260
  -1.0001143  -0.0517364  -0.8521115  -0.0054069   0.2069929   0.0775490
  -0.1585002   0.3601162  -0.0092418  -0.6748656   0.1139381  -0.0799316
  -0.1087052  -0.0018667  -0.4283851   0.2121317  -1.1309536  -0.4230736
  -0.2216025   0.0436770  -0.2189805   0.0083487  -0.0917043  -0.2068733
   0.3884184  -1.4577606   0.4703647   2.3785441  -0.1267462   0.2739063
  -0.0137267   0.0727952  -0.3748717   0.8246322  -0.0391311  -0.0450224
  -0.2757482  -0.1386179  -0.7549843   0.2110406  -0.2683372   0.1531224
  -0.1776312   0.2031964  -0.0879944  -1.0103951   1.7127644  -0.7532994
   0.1152076  -0.1145027   0.0607418   0.7572173  -0.7651450  -1.1246548
   0.1204775  -0.1857318  -0.8727783  -0.1021327  -0.1630127  -0.1361922
  -0.4546386   0.3673351   0.2064180  -0.0742216  -1.0492696  -0.8388734
   0.0284590   0.1729125  -0.0176184  -0.0782388   0.1577253   0.2316270
   0.5831865   0.0790737  -0.1476508   0.0502867  -0.0762429  -0.3244663
   0.0188053  -0.6790205   0.5387792   0.1343262  -0.6335016   0.4314835
  -0.2451370  -0.1661854  -0.1380259  -0.5039620   0.0151791  -0.0261886
  -0.3488926  -0.4249595   0.2298425   0.0119854   0.2204863   0.2269447
   0.8052357  -0.6919786  -0.3373051  -1.5565711   0.5486188  -0.5453498
   0.0638446  -0.2313848   0.3647398  -0.0449561   0.1878132   0.3943799
  -0.3933123  -0.3510708   0.8427635  -0.1815943   0.2503228  -0.0462899
   0.4903060   0.1877194  -0.0447246  -0.4202336   1.0416862  -0.5175123
   0.1207572  -0.0795661   0.0017325   0.0561780  -0.5565420  -0.3471730
  -0.2424116   0.1284900   0.0577713  -0.0502723   0.1712316   0.1244852
  -0.3684121   0.1518352  -1.2897576  -1.0890792   0.5793538   0.0386172
  -0.0192864  -0.2252524  -0.0729459  -0.4360626  -0.5663980   0.2068468
  -0.9904274   0.2140052  -0.2322842   0.1432105   0.0440593  -0.1352905
  -0.1476550   0.5747015   0.7706673  -0.5121100   0.0103575  -0.1692435
   0.0529185  -0.1821999  -0.1038329   0.4772057  -0.7742558  -1.2671152
   0.2842870   0.2028285   0.2247956   0.2035519  -0.1342650  -0.0787175
   0.5816208   0.1426162  -0.5242047   0.3530175   0.1114002  -0.5300804
   0.0797407  -0.0576403  -0.1691173  -0.3351385  -0.4956239   0.0263484
  -0.0307110   0.3904412   0.1856140   0.0142100   0.4639609   0.0736718
   0.5682305  -0.4159222   0.8194292   0.3737595   0.4916538  -0.4949496
  -0.0808162  -0.1525279   0.1760417  -0.3782030   0.1699539   0.0375604
   0.3277565   0.0086229  -0.0778265   0.2417381  -0.1787271   0.0885905
   0.2236643  -0.0624661  -0.0295001  -0.3551283  -0.2798350   0.7834894
  -0.0170245  -0.0906875  -0.0282643  -0.3755512   0.1165982  -0.2966106
   0.4317352  -0.4417941   0.5448187  -0.1178526  -0.1925241  -0.4738771
  -0.1070830  -0.1500311  -0.4269183  -0.5830860   0.1376733  -0.2249401
   0.1889820  -0.0222859  -0.1618166   0.9600212  -0.4044210  -0.8023142
  -0.7343649  -0.1591663   0.5693094   0.0310572  -0.1264756  -0.2663071
  -0.1429852  -0.6257759   1.1278727  -0.7910283   1.1383362  -0.2165215
  -0.1759001   0.1598619  -0.0461900  -0.5589336  -0.5831171   0.6814121
  -0.7935682   1.2076503   0.5884988   0.0667438  -0.3173774   0.1802143
   0.0538238   0.8025049   0.0679352  -0.5205653   0.2117079   0.5751298
  -0.0444819  -0.4450141   0.2749994   1.2329036  -0.3203671   0.0665788
  -0.5006622  -0.9209844   1.2035408   0.0824620   0.2027498  -0.0359818
  -0.1929184  -0.5309898  -0.2898214   0.2353031   0.5707280   0.0979095
  -0.0054289   0.3573551  -0.1771903   0.5501717   0.1201177   0.6847840
  -0.1267931  -0.2806447   0.2734463   0.1961320  -0.2896145   0.2177267
  -0.4212845   0.5201979  -0.9050454  -0.3337745  -0.4172052  -0.1089576
   0.1740347   0.1281476   0.3514541  -1.0567006   0.4981013   0.6003163
   0.7122733   0.0599837   0.5305864  -0.0868954   0.4258390   0.0559377
  -0.3750196  -0.1453709  -0.6254555   0.0877603   0.7832914  -0.0144145
   0.0023724  -0.0763910   0.1872774   0.2323140   0.1224869  -0.0643460
   0.2090419   0.0993326  -0.3172170  -0.4609439  -0.2185970  -0.0543918
  -0.5448569  -0.5820833   0.0416002   1.6842436   0.1986426  -0.0070982
   0.1440191  -0.1096944   0.1872815   0.1353273  -0.1503213   0.2030982
  -0.0804311   1.2266265  -1.3711533  -0.2597455   0.2537608  -0.2219032
   0.5881576   0.1793453   0.4514865  -0.0665282   0.5358488   0.2991091
  -0.2577789  -0.1907611  -0.2367027   0.2922537  -0.3394598   0.2659706
  -0.4164444  -0.0351779   1.0688761   0.3008044  -0.0924899  -0.0131539
  -0.2136529   0.0630223  -0.5385863   0.2015315  -0.0612776  -0.1149117
  -0.4104468   0.2872702   0.3013540  -0.5157252   0.5359693   0.2004508
  -0.1222930   0.2947894   0.1748844  -0.1567975   0.3884855   0.1907166
   1.2563530  -0.0101633   0.7873247   0.4162281   0.1949529   0.3869073
   0.1464444  -0.0412203   0.0175775   0.3981223   0.9645408   0.7290871
   0.9434631  -0.0730319  -0.1683447  -0.3301766  -0.0901152  -0.3662999
   0.0730804   0.0952022  -0.5296122  -0.5677215  -0.5837037  -0.5526870
   0.0890724   0.1970194  -0.0890022   0.3622222  -0.0119040   0.0089914
   0.0658974   0.1973543  -0.1963170  -0.2549638   0.2728457  -0.0737168
   0.8472461  -0.0842002  -0.0977697   0.6400930   0.5071048  -0.5347206
  -0.2622509  -0.1315249   0.0945024   0.4945532  -0.4047952  -0.3449782
  -0.4454298  -1.4210446  -0.9044624  -0.0788230   0.0119239  -0.1201427
  -0.3723693  -0.0386782   0.7106055  -0.2455029   0.1626205   0.5853263
  -0.1731858   0.0737697   0.1071156   0.0732946  -0.3748285  -0.0498995
  -0.3915536   0.3424731  -0.0841610   0.0289285  -0.0222970  -0.1637859
  -0.2836992   0.9131591  -0.4227555  -0.1664394   0.5565391  -0.3097736
  -0.3080678   0.1608393   0.0115264  -1.0303399   1.4046891  -0.9242947
   0.1456312   0.0342267   0.2447979   0.1137847   0.2800749  -0.0659025
   0.6803335  -0.5090551   0.9012609  -0.4866561   0.6014914  -0.9903644
   0.0293011  -0.4656415   0.3258495   0.6863141  -0.8656805   0.3211173
   1.3181378  -0.3782714   0.3998738  -0.0854375  -0.1638132  -0.0215937
   0.3482509  -0.0106602  -0.1219688  -0.0356906   0.0244735   0.5480627
   0.2169372   0.4930419   0.2101488   0.7571797   0.8880965   0.2681715
  -0.2872157   0.3123958  -0.0023565   0.0821533  -0.0519791  -0.0968194
  -0.1100194  -0.2794226   1.0965781   1.3776108  -0.3679611  -0.3860701
  -0.2057667   0.1895261  -0.0511444   0.8088214   1.7881106  -0.8791450
   0.2483839  -1.6662519   0.5356667  -0.0587475   0.1942944   0.0217581
   0.5628249  -0.1429213   0.0687315   0.1069300  -0.3372288   0.7627144
  -0.2967331  -0.3642222   0.2358152   0.7856847  -0.6842068   0.2559369
   0.3365875  -0.6560761  -1.3365089  -0.1616249   0.3544737   0.3404424
   0.1794747  -0.1997522   0.3575416  -0.2709535   0.3132802   0.8370511
  -0.0458713   0.1853385   0.1359988   0.9386433   0.0442629   1.4369045
   0.3435739   0.2206555  -0.1049015   0.0837606  -0.1132030   0.2488131
   0.2699248  -1.3052025  -0.4051941  -0.0314135  -0.8127363   1.0211269
  -0.2453356   0.1567955  -0.1630590   0.0203201   0.1522895  -0.6885754
   0.1707598   0.4713151  -0.6668905   0.0662608  -0.2246580  -0.1534771
  -1.1114896  -0.9001539   0.1317807  -0.7378605   0.0097890  -0.6074597
   0.0221804   0.0045254  -0.0476206   0.3887009  -2.5133988   0.9514961
  -0.1716187   0.2160225  -0.0730974  -0.2522382  -0.0066823   0.3133557
  -0.0589424  -0.5981164   0.4922471   1.2411471   0.1395507   0.0594669
   0.0656477   0.0803467  -0.1504660  -0.2146778   0.1392418   0.1135796
  -1.0961644   0.4311463  -0.1449502  -0.3011768   0.0489319  -0.0289229
  -0.0718462   0.3754969   0.6340896  -0.0123976   0.1313702  -0.6710069
   0.2120823  -0.0816418  -0.0751688  -0.0160807  -0.7407600   0.1469918
  -0.2806034   0.2720020  -0.2019699   0.1692145   0.0341297   0.0714903
  -0.4673304  -0.5114731   1.5768517  -0.6547540   1.0136677  -0.3856265
   0.0297621   0.0178154  -0.0029331  -0.0203875  -0.2212446   0.4122931
  -0.0339948  -0.1875225  -0.2862975  -0.0755159  -0.1632941  -0.0695664
   0.2329466   0.5513426  -0.6288311   0.0328602  -0.0130881   0.0188616
   0.2752648   0.0613306   0.0728762   0.1159305   0.1884339   0.5436144
  -0.1247913  -0.3477423   0.1523361  -0.3445231   0.2706775  -0.0721384
  -0.3655268   0.4936708   0.4337987   0.2097040  -0.5794457  -0.2378103
  -0.0430673   0.0129185   0.2713555   0.4790431  -0.8168985   0.3805939
  -0.3502551   0.2270291   0.3858521   0.1361268   0.0603562   0.2247460
  -0.0078944   0.1471197   0.1604484  -0.1824990  -1.0414724   0.3681073
  -0.2040728  -0.0775540   0.2134931   0.0032782  -0.7742321   0.4767417
  -0.0867327   0.0846714  -0.4983288  -0.1068202  -0.2720553  -0.0151962
   0.8459087   0.2851203  -0.9756792   0.8279494  -0.6410453   1.2340063
   0.2994013  -0.1278170   0.2460067   1.0587426   0.3612465   0.5880713
  -0.1106463  -0.4002892   0.5344561   0.0840251  -0.3033420   0.0222089
   0.7134711   0.0556709   0.5079842  -0.8824701   0.8489139  -0.7440938
   0.2401590   0.3136396   0.1594585  -0.2102527   0.1373847   0.6997668
  -0.1083936   0.2873003   0.3728053  -0.0364034  -0.0037307  -0.1566627
   0.0720073   0.9659447  -1.0696136  -0.2052100   0.3343303   1.0274178
  -0.3801312  -0.0715545   0.0238070  -0.0878129   0.1212269  -0.1523315
  -0.3412970  -0.0580089   0.1961252  -0.1290985   0.2241874   0.0656924
  -0.1576555   0.0723317   0.2623547   0.0558858  -0.5041015  -0.1434896
   0.0560708  -0.0733055   0.1597345   0.7076119  -0.3220706  -0.2051993
  -0.1250762  -0.0177997  -1.0668421   0.1819302   0.3080993  -0.2189510
   0.6783267   0.7894987  -1.0770960   0.5755081   0.9128908   0.7231374
  -0.2587271   0.2253558  -0.0171637  -0.0907479   0.3518079  -0.0072241
  -0.0073386  -0.0936469  -0.0410641  -0.1052788   0.1490014   0.1620534
  -0.4146341  -0.3745297   0.6663347  -0.7617789  -0.3497692  -0.0169475
   0.0305248  -0.0271844   0.2963283  -0.5810756   0.5163352  -1.4794542
   0.7065782  -0.8999234   1.3960992   0.1170904  -0.0967905   0.4759007
   0.3364874  -0.3855579   0.6193874  -0.0923798  -0.3724266  -0.5911791
   0.0119518  -0.1472626  -0.3510955  -0.0451057  -0.1083030  -0.3805331
  -0.2222773  -0.2163027  -0.1451039  -0.0162854   0.2395186  -0.1823880
  -0.1620562  -0.1818753  -0.5467779  -0.2607093  -0.3417001  -0.3360554
   0.1089986   0.1768863  -0.1987202  -0.0209957  -1.1233402  -0.3758643
  -0.1354831  -0.6210022  -0.4676026  -0.1258065  -0.0852343  -0.0657340
  -0.3946380  -0.5043095   0.0985033   0.0953302   0.6772444   0.3517910
  -0.1606162   0.0059383   0.1303178  -0.4329179   0.2009684   0.4129000
   0.1660578  -0.2392867   0.0549851   0.1912341  -0.1642972   0.3120236
   0.0165290  -1.2282300  -0.3327013   0.5145792   0.7344881  -0.5260132
   0.1250051  -0.0836199  -0.0534688   0.1153973  -0.1545653   0.2255696
   0.3750692   0.0628208  -0.0821724  -0.0493517   0.1953607  -0.1216404
   0.1572007   0.0649199   0.3949409   0.0934556   0.7235626  -0.0386954
  -0.1970623   0.1385683  -0.0945737   0.0709646  -0.0493973  -0.8642541
   0.5039119   0.3189779   0.4058656   0.0613802   0.0059101  -0.0651924
   0.5207380  -0.1038400   0.3320190   0.0959369  -0.6123121  -0.2378470
  -0.3268079   0.0473587   0.1212875   0.4355643  -0.7583892   0.3325601
  -0.0584152   0.6937264  -1.7737812  -0.0340300   0.0802810  -0.2776801
   0.4304843   0.5024520  -0.5128148   0.1532647   0.1137106   0.3617557
  -0.0301094   0.0572949   0.1344602   0.2321644   0.0615125  -0.5501635
  -0.4204615   0.1786803   1.1659080   0.0425821   0.1255004   0.1314710
   0.5892018  -0.0253467   0.2297168   0.1174618  -0.2264591   0.3410354
   0.0233063   0.3212127  -0.1264370   0.1861535   0.2832671   0.6513120
   0.6709788   0.7628477   0.1782395  -0.1746784   0.1003399   0.1596789
  -0.3877719   0.7206062  -0.5818415  -0.0866941  -0.4571675  -0.5818575
   0.1325501   0.1628359  -0.1484999   0.9035020   0.0937582   0.4498527
   0.0006313   0.0486933  -0.4234365   0.0005805  -0.3021557   0.1139957
   0.1143911   0.2286062  -0.5664243  -0.2901713   0.2253512   0.3252117
   0.3279245  -0.0810678   0.3797261   0.4693349   0.4428966   0.4648729
   0.2274146   1.0385756   0.6175319   0.1527699  -0.0239015  -0.1994795
   0.8329090   0.3441086   0.0222649   0.4233980   0.0664619  -0.2183846
  -0.2779943   0.0478002  -0.2387952   0.5407968  -0.8005470  -0.2453796
   0.9519262  -0.6274436   0.2064491   0.0404926  -0.2706550  -0.4148057
   0.6176119   0.0949316  -0.9514093  -0.1235857  -0.4533297   0.1793533
   0.2823809   0.3700586  -0.1098795   0.1778421   0.4194541   0.4649873
   0.6393353  -0.8670441  -0.4960610   0.0624282  -0.0509209   0.1369843
   0.4399414  -0.4351196  -0.0291744   1.0078634  -1.1995596  -0.1424213
   0.0249262  -0.2536471   0.1307810  -0.6173722  -0.7552128  -0.2905996
   0.6908444  -0.6185079  -0.2404896  -0.0526805  -0.0345345  -0.1475893
   0.2619045   0.4201348   0.9742434  -0.8826633  -0.4054143  -0.4431177
  -0.1307330   0.3441348   0.1996386   0.2644460   0.1871314   0.4316452
   0.7566538  -0.4689044   0.5255494  -0.2690652  -0.0338060  -0.1405008
  -0.0522696  -0.1552176  -0.1338007  -0.2935655   0.0687126  -0.6269230
   0.0234036   0.3574396  -0.1411136   0.5264128  -1.1554646  -0.1951843
  -0.2797092   0.9679348   0.3104949  -0.3037209   0.0834051   0.3322535
  -0.2961602  -0.5252287  -0.1058427   0.3548810   0.4179184   0.2013128
   0.2838144   0.0085344   0.0094612   0.0445158   0.1044328  -0.0872163
   0.6099816   0.0835528   0.0054429  -0.1427486   0.1357047   0.0439151
  -0.6861785  -1.1089168   0.4912650  -0.7324865   1.0250216  -0.1891075
   0.4049337   0.4225117  -0.2166120  -0.8186860   0.6643973   0.4580612
   0.3683616  -0.7784634  -0.3474241   0.0212880   0.0976045  -0.1074709
   0.4256444  -0.5284632  -0.4722517  -0.7530396  -0.0672340  -0.0726802
  -0.1113908   0.0662953  -0.1343390  -0.4333282  -0.0529137  -0.2355776
  -0.0113363   0.4439725  -0.1639082   0.0117192   0.1084921   0.0522901
   0.0950244   0.0470946   0.2807992  -0.6610818  -0.8753391  -0.1441915
   0.2637892   0.2093933  -0.1217192   0.4336631   0.4400856  -0.3167817
  -0.5077498  -0.3592886   0.2803848   0.0502501   0.1491091   0.1767282
  -0.1062484  -0.3827166  -0.0276248  -0.4237705   0.3608128  -0.1074915
   0.1482405   0.0813602   0.0222793  -0.4706597   0.1388193  -0.6566558
   1.0750032   0.4514983  -0.5013934  -0.2292812  -0.1954799   0.3727209
   0.2859108   1.0440761   0.6325072  -0.3080924  -0.0494310   0.7774900
   0.0847980   0.0667946  -0.1516433   0.7270703  -0.0549474   0.0382675
  -1.6396146   1.0291353   0.3186355   0.2131610   0.0247091  -0.0416366
  -1.3826381   0.0998992   0.0638493   0.5818624  -0.3520148   1.0166107
  -0.1986117  -0.1008299   0.2632367   0.0314298   0.2866553  -0.0301908
   0.1527022   0.1913393  -0.5322991  -0.0979408   0.0867266  -0.1661479
   0.0859582  -0.5491018  -0.5976690  -0.1288068  -0.5730708  -0.5662665
  -0.1826023   0.1355076   0.1530948  -0.0001362   0.5670759  -0.8542867
   0.3685777   0.7527185   0.8089685   0.0472504   0.0243130  -0.1860144
  -0.0064162  -0.8655057   0.1381844  -0.1445819   0.3071681   0.0764035
  -0.1382938  -0.1223664  -0.2613617   0.6620913  -0.8065424  -0.4925535
   0.8696012  -0.9819308  -0.5430252   0.0579212   0.1165428   0.1794105
  -0.5178919   1.0757076  -0.0849311   1.5566166   0.1251081  -0.3128403
  -0.2602351   0.2086601   0.1558527  -0.1561696   0.1241102   0.3967780
  -0.2679271   0.1532405   0.2027328   0.1420608  -0.1455242   0.1321395
  -0.5706318  -0.6951164  -0.2267846  -0.2216433  -0.1229412  -0.4849012
  -0.2198040   0.1659068   0.0213166   0.2619582   0.4058163   0.7363964
   0.4527011   0.4411330   0.2866691  -0.0682374   0.1098164  -0.2144797
  -0.0253903   0.3853841  -0.5514484  -0.6694650  -0.7725622   0.2981828
   0.0177468  -0.4483255   0.3691255   1.5198401  -0.3855330   1.1144949
   0.0719961  -0.6973346  -0.4026619  -0.1309008  -0.0110709   0.3430909
   0.7608176   0.0849717   0.0288119   0.1456277  -0.4315486  -0.3287206
  -0.0675432  -0.1650004  -0.3714267  -0.2563083  -0.0606807  -0.5396982
   0.1120629   0.0404252  -0.3863055  -0.0819698   0.0724535   0.1867749
   0.6416458  -0.3215869  -0.9570164  -0.3356319   0.1431080  -0.0708615
  -0.0383950   0.0798622   0.0403687  -0.4873566   0.0933001  -0.0885190
   0.4913440   0.0575380   0.1989803   0.0227220   0.0370437   0.1104922
  -0.2519502  -0.7625673   0.4340209  -0.0784779   0.2777378   0.1160439
   0.0691181   0.2495974  -0.1426120   1.2012591  -0.9724246  -0.7045532
   0.2961081   0.0237761  -0.2044993   0.3186384   0.1210119  -0.0509418
  -0.0791123  -0.2553335   0.1014231   0.0156521   0.3490631  -0.1266473
   0.2970227   0.2197604  -0.3113635   0.9158360   0.5084892  -0.6399667
  -0.0403404   0.8941250  -0.2998615  -0.0163709   0.1696257  -0.0154484
  -0.3521536  -0.0781236  -1.2817984   0.0035956   0.3399091   0.3781684
  -0.1034499  -0.1965682   0.0323342   0.0295953  -0.2206493  -0.4052090
  -0.2913505  -0.2239737   0.7448652   0.2485602  -0.1416926  -0.2970068
  -0.3649902   0.4979493  -0.1896256  -0.2903949   0.4549854  -0.4385428
  -0.2245219  -0.0279375  -0.3907538  -0.3445494  -0.3088539  -0.6470779
  -0.6055492  -0.2035197  -0.6754517  -0.1006900  -0.1326945   0.0683740
  -0.1317962   0.5054281   0.1072591   0.3150475  -0.2698217   0.4868574
   0.1132718   0.2566886  -0.1607038   0.0683454   0.5014954  -0.8087787
   0.0278080   0.3929823  -0.6430945   0.0263076   0.1167271   0.4159871
  -0.2365531   0.1813076  -0.7318705   1.3510385   0.4754183  -0.7534727
   0.0001117  -0.0549421   0.3387355   0.7720477  -1.0081242  -0.6330868
   0.3326040   0.0914736  -0.7124377  -0.2346335  -0.2592561  -0.2590863
   0.1820045  -0.2105540  -0.3891280  -0.4231743  -0.5471371   0.4078870
  -0.1477920   0.1156121  -0.1903471  -0.1422070   0.2679850  -0.8668383
  -0.1344630  -0.2655118  -0.1639129  -0.1012832  -0.0638252  -0.1119477
  -0.2812782  -0.1730254   1.0150857  -0.7648339   0.5404188   0.3331647
   0.0951362  -0.0316545   0.0732613   0.2003251  -0.3636918  -0.4752514
  -0.0103099   0.2893841   0.6020077   0.5060617  -0.0292592  -0.1382165
   0.2630609   0.2065118   0.3587048  -0.6224978   0.4297598   0.3881146
  -0.1435471   0.1502861   0.0799021  -1.3576555   0.5715057   0.1658435
   0.3239564   0.0024580   0.2851389  -0.2320991  -0.0586951   0.3106581
   0.0763161  -0.5282351  -0.4110109  -0.4776299   0.7603289   0.0910617
   0.1786683  -0.0001517   0.1597082   0.0910755   0.0058249  -0.5134300
  -0.3224521  -0.2997111   0.2080253  -0.1878183  -0.3256959   0.2120730
  -0.1912977   0.3930043  -0.1528019   0.5092614  -1.4329094  -0.4046668
  -0.0160528   0.1139268  -0.0435696   0.8716571   0.3235152   0.6115080
  -0.1476706  -1.3762441  -0.2026473   0.1056922   0.0129867  -0.2158113
   0.5975533  -0.1149555  -1.1078940   0.8539027   0.4067744   0.9728551
   0.0362454  -0.0428394   0.0699439  -0.0487884   0.1099367   0.0204449
   0.8344612  -1.8913592   0.1447096  -0.3231680  -0.0729995   0.1732789
   0.9955197  -0.1003411  -0.3848771   0.8620493  -0.7765692  -0.2482763
  -0.1713316  -0.0967018  -0.0875583   0.2631423   0.3028155  -0.7531499
  -0.4003492  -0.3430869   0.2326921   0.4500547  -0.1584164  -0.1179970
   0.4382877  -0.4911032  -0.0101827   0.8442469  -0.1151385  -0.1495229
  -0.0345623  -0.2031955  -0.1267698   0.3367753   0.2597302   0.3391472
   0.5102106   0.5804711   0.6402943   0.1861049  -0.2056698   0.0199018
   0.0411175   0.0043229  -0.6245198   0.7827758  -0.2076532   0.3314780
   0.0219405  -0.0693236   0.2095744   0.6614745   0.1900926   0.4310525
   0.6527956   0.1167747   0.1660495   0.0705528  -0.0377779   0.4182568
   0.3009270   0.0444880  -0.9125140   0.4104765  -0.3493054  -0.4314253
  -0.1185487  -0.1605457  -0.0404623  -0.9298919   0.1483155   0.2542860
   0.6813821  -0.5606569  -0.6562896   0.0102312   0.1168528  -0.0387963
   0.6496377  -0.0792750   0.5883659   0.1831152  -0.1267364  -0.1629383
  -0.1642030   0.2938298  -0.1868916  -0.0509831   0.4372374  -0.2238810
  -0.0649374   0.5760850  -0.2503720   0.0123698  -0.0973134   0.2087612
  -0.2537057  -0.5415268   1.1002391  -0.8208395  -0.3724110  -0.0807913
  -0.3690602   0.1631943  -0.0518929   0.1498850  -0.4437318  -0.4826916
  -0.0236920  -0.2183472   0.2688688   0.0779797   0.0239081  -0.1890799
  -0.3503280   0.5350830  -0.0454692  -0.4303491   0.3310673   0.0684975
   0.2146305  -0.1409487  -0.1634488   0.6132954   0.7775320  -0.8211871
  -0.1768440  -0.8158631  -0.1567310  -0.0560513  -0.2491262  -0.2959637
  -0.1118337   0.0160595   0.2910084  -1.2453004   0.2606213  -0.5221968
  -0.5599086  -0.2517147  -0.2474544  -0.3667381  -0.2831108  -0.0079196
   0.1727527   0.0636489   0.5925456  -0.2147742  -0.2148973   0.2133059
  -0.1493177  -0.4176191  -0.0087559  -0.1687676  -0.3536337   0.0578278
   0.2136870   0.1020193   0.3033750   0.1726898  -0.1024667  -0.2316403
   0.1645147   0.2125216   0.3527904   0.1160957  -0.3137277  -0.0749984
   0.5767624  -0.0845309  -0.2061611  -0.6307500  -0.8875854  -0.0101078
  -0.0085292   0.0289543  -0.1144938  -0.2705974   0.7235255  -0.5305077
  -0.0157113  -0.3495698   0.9431614   0.2029914   0.0988881   0.4446625
  -0.1996272   0.0370356   1.3467961   0.1829470  -0.0888681   0.9513076
   0.1539817  -0.1129004   0.1392329   0.3235007   0.0590880  -0.0701374
   0.0574973  -0.2234737   0.2703616   0.1594153   0.1497198  -0.1368443
   0.4685493  -0.3246983   1.0695100   0.2687513   0.0848530   0.5491980
   0.2395211   0.1528606   0.2297250  -0.3030611  -0.1344211  -0.1787810
   0.5906887   0.7837880   0.1342914   0.0626675  -0.1101808   0.0246863
   0.6779449   1.0374374   0.1368057  -0.1123349  -0.3573551   0.0736798
  -0.0058609   0.0558727  -0.1864394   0.8989607   0.2644995   0.3499315
   1.4220614   0.4549256   0.0954427   0.2426194  -0.1006049  -0.3934942
   0.2924363  -0.1606038  -1.0354129   0.1090430  -0.8293140   0.1973364
   0.2493223   0.2605419  -0.1062832   0.6560709  -0.3665957   0.0698580
   0.1194203   0.2453155   0.2354514   0.3718736  -0.2203154  -0.1405942
   0.4820199   1.0016466   0.2968754   0.1907640   0.0137345   0.2041344
   0.0802874   0.1139847  -0.1524071  -0.2400899   0.0688724  -0.3787458
   0.4606299  -0.3519846   0.0092237   0.1636345  -0.1099814  -0.0461507
   0.3316501   0.2396796   0.3339106   0.4125647  -0.1764986  -0.3709463
  -0.1323324   0.0486395   0.0651769  -0.9802939  -0.2469196   0.2729799
   0.0194470  -0.3019614   0.0452871  -0.3265692   0.0814328  -0.2189974
   0.1537542  -0.1505634   0.1651392   0.5594995  -0.4108148  -0.0761700
  -0.1959197   0.1151035  -0.1798006  -1.3800752  -0.0865349   0.6109047
  -0.2343362   1.1276646  -0.5554685   0.0552892   0.2506196  -0.0512202
  -1.0818079   0.8957484   0.3017819   0.9620322   0.6718334  -0.8579369
   0.0659546   0.0314032  -0.1590027   0.3921573   0.1432162   0.2527732
   0.4009023   0.2490395  -0.4040816   0.0150387   0.2908347   0.2612564
  -0.2073773   0.3049072   0.4332890   0.0888331   0.5358211   0.2670907
  -0.2906066   0.3491926  -0.3895435  -0.2854457   0.9428201  -0.4238432
  -0.3339527   0.6389262  -0.0609554   0.1162601  -0.1604268  -0.0689366
  -0.6513232  -0.9697166   0.1005528  -0.9124343  -0.0715421  -0.8022084
   0.0160229  -0.0311530   0.0099709   0.1322842  -0.4633774   0.4524856
  -0.0047847   0.1884074  -0.0947621  -0.1486093  -0.1655205  -0.1596155
  -0.5059166  -0.0596424   1.0732177  -1.0105942   0.1486040   0.6682293
  -0.2819440  -0.0066128   0.2226755   0.4298852  -0.1111895   0.2545646
  -0.4487378   0.0237088  -0.4626636  -0.1769142   0.1248820  -0.0298906
  -1.5740499  -0.8810410   1.2779237   1.1010582  -0.2726252  -0.3462664
  -0.0989421   0.0173123   0.2653857  -0.2571907  -0.2263094  -0.3144795
   0.3008171  -0.2389308  -0.4542636  -0.0205186   0.2245818   0.1097214
   0.0120649   0.1727365   0.1266857  -0.0268949   0.1558761   0.2243685
  -0.0149969  -0.0751670   0.1468954   0.3959083  -0.3898390   1.4250209
   0.8138318  -0.3711631  -0.9066880   0.1938633  -0.0238178  -0.0349978
   0.8109245   0.8708680  -0.2435524   0.2662305   0.4023834  -0.7027443
   0.0493744  -0.0786538  -0.1024250  -0.0637276  -0.5267323  -0.2075484
  -0.6833005   0.4094612   0.2711069  -0.3654496  -0.1534831   0.1805527
  -0.3280226  -1.0834530   0.2963497  -0.3419779   0.3883394   0.2988722
   0.1717038   0.0254849  -0.2692264   0.6243385   0.0848830  -1.1808061
  -0.0539091  -0.0959808  -0.2856899  -0.1906811  -0.1505132   0.2142688
   0.0148191  -0.5391238  -0.4597346   0.6120705   0.0241057  -0.0722470
  -0.2539789  -0.2298353  -0.2343354  -0.3412897  -0.1579694  -0.4166206
   0.5592910  -0.0971083  -0.6105689   0.1483743  -0.3532033  -0.1322454
  -0.3452188  -0.2108507  -0.4641423   0.7395145  -0.6471562   0.3335027
  -0.1005409   0.0876617   0.1156283   1.3984718  -0.9611089  -0.3077158
  -0.2368092   0.4192248  -0.8079042   0.0590414  -0.1314743  -0.3685403
  -0.0981323  -0.5103816  -0.1706936  -0.1396934  -0.5151893   0.1989248
   0.0517600   0.1986588   0.0533114   0.4395981   0.3551520  -0.3756125
   0.0212800  -0.3579338  -0.1995502   0.3179410  -0.0283351   0.1751353
   0.7114860  -1.1773284   0.7326412  -0.6132251  -0.6357321   0.2240194
   0.0081811   0.2485660   0.1294053  -0.8608385   1.3472926  -0.4943516
  -0.2928743  -0.8999798   0.0146575  -0.0598725   0.0122175  -0.1609847
   0.0473310   0.5123689  -0.5563471  -0.5222314   1.0584177   0.5551766
   0.0808393  -0.2479815  -0.0624350   0.8648551  -0.5121623   0.7132963
   0.0377199  -0.2049272  -0.0088454  -0.2445809  -0.2276124   0.3372237
   0.8995166   0.9689144  -0.5561271  -0.5608372  -0.6026832   0.2039168
  -0.0475659   0.0815146   0.3968402  -0.6105241   0.4654802   0.1695665
  -0.3111022  -0.4194472   0.3462117   0.1074277   0.1304312  -0.0762808
  -0.4335552  -1.2739449   0.0711553   0.0539998  -0.2494247   0.6117701
  -0.0563944   0.0379018  -0.1816729  -0.0011746   0.2738742  -0.5842443
  -0.0752878  -0.1026557  -0.0140509   0.1531692  -0.1663863   0.0184619
   0.0673356  -0.6202124   0.7568236  -0.1140569   0.0883706   0.0514235
  -0.3691346   0.2437334   0.5162893   0.0016675  -0.9634747   0.3080139
  -0.5803840  -0.3671331  -0.4996422   0.0783299   0.1236517  -0.0791917
   1.0148881  -0.4568619  -2.1610001   0.2199856   0.3636592   0.0640697
   0.0250270   0.1277168   0.2753244   0.2039170   1.4096249   0.0806100
  -0.2112683   0.3811092   0.3803743  -0.2413951   0.1406903   0.0094745
  -0.3851195   0.3400950  -0.0658133  -0.1109931  -1.0923380   0.1502944
   0.3982101  -0.0836016   0.0921734  -0.5412461  -1.4589407   0.2286073
   0.5326983  -0.3038312   0.3940793   0.0349259   0.1757909  -0.4642575
   0.1997126   0.4593930   0.2569988  -0.0772645   0.3633827  -0.0805552
  -0.1527051  -0.0430359  -0.4918320   0.2209247   0.0672133  -0.0346191
   0.1622799  -0.4904615  -0.2284472  -0.3299935   0.1330702   0.2286895
   0.3626662   0.5782031  -0.1146619  -0.9558739   0.1716713  -0.5256901
   0.0422477   0.0616706  -0.0438878  -0.2372256  -0.2500203   0.3698736
   0.0428182   0.0115407  -0.2598842   0.1081512  -0.2258579   0.2716086
  -0.5877262  -0.6532192  -0.3925995  -0.8633742   0.0217717  -0.1957057
  -0.2635072   0.0146153  -0.3928749  -0.2196062   0.6724386  -0.5666267
  -0.6273444  -0.3706995  -0.9608459   0.1916539  -0.3027921  -0.0265942
   1.0703494  -0.3832688   0.1576765   0.6369996  -0.7294229  -0.1375047
   0.2325837   0.2181353  -0.0098363  -0.1593261   0.0510047   0.1716947
  -0.3468847   0.3334627  -0.0392891  -0.2365789  -0.3124169  -0.0156654
  -0.2237142  -0.2003612  -0.1384625  -1.4191851   1.6088702  -0.5865509
   0.2731904   0.0169674   0.2485825   0.0451102  -0.4173109   0.6942916
   0.3721757   0.0693197  -0.6331357  -0.2298977   0.2734343  -0.0813011
   0.5085261  -0.2800730  -0.4592951  -0.5826574  -0.0787996   0.2869838
   0.1125807   0.2154214  -0.1429273   0.1622790   0.0055037  -0.3300108
  -0.4632791  -0.3323203  -0.5470394   0.0734758  -0.3628138   0.3678395
  -0.3628124  -0.2060776   0.6314882   0.2764916   0.0722541   0.1529566
   0.0320465   0.5940836  -0.0083567   0.4934910   0.5002334  -0.2235910
  -0.2421399   0.5832020  -0.3765947   0.0454737   0.1889359  -0.0245352
   0.6189619   0.0179032  -0.3687347   0.0987698  -0.2395578  -0.3719076
   0.0536605   0.2057214   0.3278367   0.0369998  -1.2347965   0.1926103
  -0.8376297   0.0612340  -0.1891745  -0.0896029  -0.4202766   0.0254192
  -0.4664980  -0.0181457   0.7359823  -0.0318588   0.7101347  -0.1886963
   0.1723777   0.2841843   0.5218015  -0.4397198   0.2920529   1.0124812
  -0.0719535   0.1408394   0.8596338  -0.0142982   0.0947769  -0.0843556
  -0.0556087   0.0573878  -0.1351315  -0.3129456  -0.0825458  -0.7240777
   0.0794422   0.0079595   0.1752540   0.3106588  -0.2612972  -0.2982857
   0.3678589  -0.4282397  -0.1413985   0.2129648  -0.0007350   0.0727771
   0.2436221   0.0125285  -0.2470039   0.2308725  -0.6579677  -0.5723821
   0.3966702   0.3349254  -0.3225695  -0.1325049   1.1573100   0.4049638
   0.7004080  -0.1516500  -0.9044985   0.1081081   0.0991050   0.2109311
   0.5428043   0.7266361   0.0491293   0.1939455  -0.2315939   0.5934449
  -0.2307855   0.0481134  -0.1446215  -0.3899198   1.1725134  -0.0482968
   0.2456861   0.7583978  -0.2014266   0.0191036   0.2568987  -0.0247616
  -0.0021677  -0.4406993   0.0212454   0.0825956   0.9503640   0.6880895
  -0.2373426  -0.1546974   0.4282939  -0.3836759  -0.8002639  -0.1520786
  -0.8032392  -0.2675797  -0.1666366  -0.0532702  -0.1629801   0.0836893
  -0.3621135   0.1310126  -0.6623233   0.3046788  -0.2610439  -0.8619999
   0.0076991  -0.1755185  -0.1436842  -0.2017802  -1.0735514  -1.6097269
  -0.4060862   0.3100989   0.1076412  -0.2182420   0.0982560  -0.0291097
   0.6772819  -0.0980463   0.1822666   0.4471898   0.7599796  -0.3262336
  -0.3902477   0.1264821   0.2636637  -0.7903270  -0.6409926   0.4669944
  -0.0566765  -0.1238829  -0.6689400  -0.0040833   0.0227176  -0.0029757
   0.0006419   0.0148428  -0.2420419   1.1306316  -0.2436106   0.4558557
   0.0198065   0.1201350  -0.0974414  -0.6904274   0.2068900  -0.9610654
   0.2247987  -0.0708103  -0.4452108   0.0870607  -0.1884820  -0.1428452
  -1.5916382  -0.5455697  -0.3178179   0.2589838  -0.8424181   1.1381719
  -0.0164998  -0.2116507   0.0296720  -0.2017640  -0.9845702   0.0423380
  -0.2236783  -0.0351177  -0.5032996  -0.0248006  -0.0016745   0.0571658
   0.8516797  -0.3182266   0.4392802  -1.2538646   0.3751041  -0.5470615
   0.0758416   0.3246688  -0.3099805  -0.0114195   0.0661885   0.6783318
   0.0407081   0.5051472  -0.0956955  -0.0201727  -0.2595099   0.0211826
   0.0862095  -0.1793548  -0.1363245  -0.6489748  -0.6837847   0.7862155
   0.1543577  -0.3080663   0.1049537  -0.0018161   0.3507506   0.2106247
  -0.5155438  -1.3574779   1.0076960  -0.2458067   0.2340012  -0.1271660
   0.0876168   0.3480799  -1.1734544  -0.1936616  -0.6671640   0.1720280
   0.0974038  -0.0462010  -0.2630256   0.1348950   0.0682356  -0.6567155
   0.2301834   0.0589047   0.9132123  -0.0758163   0.2635655   0.1908423
   0.4408620   0.4020520   0.0564124  -0.0326434   0.0235724   0.0742921
  -0.0438483  -0.2464213  -0.1198634  -0.0646791  -0.0616299  -0.2689576
  -0.5400765   0.4233618  -0.3899796  -0.0717995  -0.1670109   0.0257185
  -0.0488124  -0.1479837  -0.0564948  -0.1486283  -0.1589692   0.0768567
  -0.0904174  -0.0335737   0.1237062  -0.7196697  -0.0653190  -0.1228466
  -0.1584026   0.3087947   0.2690909  -0.1959124  -0.0540001   0.1896503
   0.1237838  -0.5862217   0.4885319   0.2192697   0.5841845  -0.5576596
   0.0358773  -0.3343827  -0.0995325   0.1915427  -0.8873903   0.1935118
  -0.1223723   0.1900503  -0.1607772   0.1046760   0.2575029   0.1389096
  -0.1841975  -0.0432096   0.4205350  -0.3139696  -0.2034801   0.2891682
  -0.2889833   0.3427318   0.0571351   0.2911733   0.6188971   0.3210137
  -0.5363050  -0.3446448   0.2357068  -0.0409517  -0.2649760  -0.2569467
   0.2361671   0.4911611  -1.5867149  -0.8770034  -0.4754310  -0.7345900
   0.2119696  -0.0085152  -0.2637481  -0.4974106   0.1573029   0.6242414
   0.0741470   0.1568451  -0.0143349  -0.1001932  -0.4874497   0.2633030
  -0.5388117   0.3689979   0.5829118  -0.8429702  -0.9852242  -0.9768504
  -0.0915923   0.0303727  -0.1368408   0.4124454   0.3251801   1.2987330
  -0.7881169  -1.0156411  -0.7030880   0.0461746  -0.0741274  -0.2367927
   1.0726195  -0.9135258  -1.0616814  -0.1084441   0.3926642   0.3858377
   0.2679225  -0.0908612  -0.3371380   0.7823987   0.8009823   0.6256180
   0.0424685   0.8350991   0.0629424   0.3727842  -0.1685958   0.0783371
   0.0636083  -0.3514176   0.2287547   0.3338150  -0.0650107  -0.3976284
   0.1281129   0.1057561   0.2054868   0.7110727   0.6751998  -1.0174383
   0.1159726   0.4434788  -0.1284865  -0.2988027  -0.0401500   0.0700687
  -0.3499181  -0.5098817   0.0514382   0.2175511  -0.2629652  -0.0480045
  -0.0012513   0.2326029  -0.3487629  -0.2483669  -0.3655025  -0.3667123
  -0.4522387   0.3725567  -0.5430193   0.0590022   0.1070298  -0.1591539
  -0.0150403   0.1184525  -0.1558549  -0.0222373  -0.0168322  -0.0070409
   0.3078323   0.1710141   0.1844904  -0.1117057  -0.5893254   0.1298346
  -0.3049890   0.4527266   0.5653531  -0.1344913   0.1916440   0.1425756
   0.1862411   0.1640863  -0.0355495  -0.2359364   0.2436780   0.1678611
   0.1998698   0.1755285  -0.1601033   0.7363871   1.5205616   0.9707691
  -0.4309070  -0.6504241  -0.5951211   0.0316249   0.0450396  -0.1886718
  -0.5650778   0.0546397  -0.5340249   0.3475397   0.2557323   0.0470621
  -0.0559120   0.2301200  -0.0444463   0.1686365   0.2585104  -0.0707173
  -0.4422281   0.3649809  -0.2438286  -0.0289341  -0.1405970   0.0160788
  -0.1370838  -0.2607092   0.5044835  -0.2309619  -0.5497758   0.2746188
   0.1021440   0.1770066  -0.1828818  -0.1708144   0.2769610   0.0173574
  -1.1765552   0.6539118   0.7344894   0.1563561   0.0275557   0.2853788
   0.4147147   0.0884700  -0.8115711   0.6593260   0.6606026   1.4747063
  -0.0332210   0.3766956   0.1490437  -0.1783459   0.7994874  -0.4090404
  -0.0704903   0.4243787  -0.7328525   0.0373316  -0.1577762  -0.0559414
   0.1241895  -0.1907159   0.3170808  -0.0488434  -0.1348293   0.5833360
   0.4031258  -0.0300172   0.0154646   0.1115636  -0.1035894  -0.1300329
  -0.9106497  -0.5112556  -0.7823735  -0.0097349   0.1070249  -0.1279312
   0.1238204   0.5584207  -0.0113901  -0.1975897   0.3147458  -0.1902285
  -0.3035162   0.0860337   0.0857561  -0.5730308   0.4921856  -0.1977744
   0.3304118   1.0244815  -0.6747688   0.2410973  -0.0436316   0.0679548
   0.4060813   0.5242883  -0.0379324   0.1325014   0.3976442  -0.5634292
   0.1897017  -0.1047767   0.3003363  -0.2100966   0.6490906  -0.0899516
   0.3852769  -0.6803153  -0.4338591  -0.0321371  -0.0851739  -0.2010718
  -0.2547208  -0.0748768   0.0725380  -0.0481524  -0.0938927  -0.1201351
  -0.2644963   0.0208649  -0.0448967  -0.8715373   0.1805704   0.2181661
   0.3070582   0.2207907   0.2421443   0.1626264   0.2518196  -0.0534234
  -0.4628651   0.7905039  -0.0590509   1.2404520   0.3389482  -0.3042092
   0.3690315   0.0905038   0.1894890  -0.0147194   0.2741189   0.3103391
  -0.0896207   0.3492490   0.6435327  -0.1768754  -0.2220811   0.0397496
  -0.2088861   0.2455923   0.5035599  -0.2730137  -0.5761622   0.3945528
   0.1150839   0.1803751  -0.0703724   0.2999913   0.3991278  -0.3212224
  -0.5080312   0.2788838   0.5293210   0.0292501   0.0199435   0.0141815
  -0.0354174  -0.6835779  -0.4537115  -0.8540455  -0.4410471   0.6575827
   0.1148130   0.1968934   0.0486017  -0.0025276  -0.5101629   1.2134839
  -0.3027213   0.3450811  -0.3753140   0.0315684  -0.1418813  -0.3130663
   0.2400431   0.9420031  -0.1026497   0.4514837  -0.4587387  -0.3763745
  -0.1689724  -0.0596314   0.1643095   0.1536945  -0.2247283   0.3746054
   0.2495342  -0.4328006  -0.2428712   0.0433253   0.1544890  -0.1086395
  -0.0329160   1.6798437   0.7782853   0.1996999   0.7304828   0.7251303
  -0.0693196  -0.2463937  -0.0178587   1.1548473   0.0680649   0.5153393
  -0.3172380   0.2276284  -0.3647614  -0.2265284   0.1190640   0.0287406
   0.3862788   0.4916403   0.3479316   0.2763428   0.9244060  -0.6639609
  -0.0206462   0.0724701   0.0482939   0.1481556  -0.3325936   0.3609441
  -0.2581858   0.3989274  -0.3373537  -0.3365193  -0.0921668   0.2820094
  -0.7644272  -0.0173905   0.2547538   0.0274632  -0.4118338   0.2755659
   0.0258211   0.1722326   0.0635994   0.1215231   0.3213475  -0.2892923
   0.1300328  -0.0520903  -0.4746401  -0.2061508   0.2182015   0.1362728
  -0.6614226   0.6196121  -0.6571850  -0.1298265   0.1574152  -0.0032508
   0.2143509   0.1044354  -0.1407522   0.6234544  -1.1465620   0.7456307
  -0.4131183  -0.5937255   0.9671896  -0.1880470  -0.5313298  -0.0783946
  -0.1137817   0.0934290   1.0773990   0.2029971   0.0181063  -0.2669440
   0.0390998   0.4171719   0.2578046  -0.7049188   0.0962463   0.8253614
  -1.0171961   0.1482828   0.4595803  -0.1697225  -0.0630288  -0.0933264
   0.4514206   0.0713804  -0.0583242   0.2007045  -0.0110936  -0.0073347
  -0.1916137   0.2108752  -0.0404191   0.7468411   0.4580012   1.0397400
   0.1239136   0.3363694   0.2901267   0.1900390   0.1593003  -0.0848427
  -0.8025440   1.1671665   0.7217605   0.0839138  -0.5520483  -0.3053918
   0.2004054  -0.0450294  -0.0968795  -0.1073285  -0.1789720  -0.3014614
  -0.5114229  -0.2423368   0.0159139  -0.1558461  -0.0861545  -0.2863995
  -0.0102097  -0.2212437   0.6949090  -0.5483844   0.0932757   0.9140687
   0.5879155  -0.0859099   0.0257955   0.4851276  -0.2723621   0.1386035
  -0.3054362  -0.9205683   0.2757547  -0.0298472   0.1531606   0.0059039
   0.0922097   0.2217532  -0.2737396  -0.5042468   0.1655931   0.1726495
  -0.1202640  -0.0135857   0.2158981   0.8925125   0.0641603  -0.2891752
   0.4149570   0.1811131   0.0524191  -0.0053858  -0.5237607   0.1896379
  -0.0337563  -1.0389382   1.1385298  -0.7208368   0.0947094   0.2620424
  -0.1497468  -0.1821458  -0.0697691  -0.2238608  -0.4402186   0.5102877
   0.0922377   0.1887427  -0.1766964  -0.0383758  -0.0868730  -0.1689037
  -1.2072440   0.0731611   1.0551275   0.1681817  -0.0533577  -0.1672976
   0.2087754  -0.0875159  -0.2453086  -0.0248375   0.5216078  -0.3787995
  -0.1529340  -0.1388734  -0.3844908   0.0308110  -0.3400782   0.0306986
   0.0545534  -0.8467203  -0.5945118   0.3054037  -0.1259914  -0.4036820
  -0.1223253   0.1934091  -0.1838895  -0.0561568   0.2004899  -0.2897844
  -0.1059551   0.1961256  -0.2051373  -0.2507025   0.0215820   0.3247486
  -1.6791690  -0.8516589   0.2199138   0.2270480   0.3298912   0.4661096
   0.0517648   0.1386004  -0.2399209  -0.2704530  -0.3209426   0.0976546
   0.9591291   0.4430555  -0.8580818   0.2226707  -0.1847638   0.0680687
  -0.8747437  -0.1769709  -0.1710801   0.2311564  -0.4607294  -0.7482280
   0.2148977  -0.1151417  -0.3156535  -0.0570530   0.1401703   0.1529946
  -0.7843957   0.2518139  -0.2034447  -0.0489477  -0.0035989  -0.0316114
   0.0437078  -0.2278328  -0.0302992   0.4571044  -0.7868885   0.5105422
   0.2289587  -0.1455692   0.0473776   0.9989338   0.5919578   0.1606565
  -0.0310399   0.1445716  -0.1514714  -0.4433918  -0.1517054   0.0797000
   0.5810636   0.8893238   0.3054862  -0.2890884  -0.1586738   0.3504579
  -0.0716412   0.1026374  -0.2120248  -0.3533845  -0.0522097   1.4339977
  -0.5726916   0.0690498   0.0953802  -0.0806929  -0.1288192  -0.1871820
  -0.2662277  -0.1596945  -0.8203693   0.4977031  -0.5003373  -0.4161717
  -0.2439754   0.0560047  -0.1252464  -0.1980833   0.1390886  -0.1674820
  -0.6571249  -0.8682581   0.1025196   0.1771440  -0.0085343   0.1331540
  -0.3575025   0.4478493  -0.2963967   0.4469441  -0.1917003   0.3150673
  -0.1507494   0.0983202  -0.2534837   0.1594542  -0.3229511  -0.7921194
   0.3611767   0.5621535  -0.4941168  -0.2006549  -0.3524141  -0.0647359
  -0.0612903   0.3217950  -1.1037157   0.0910878   0.8802013  -0.0044192
   0.1571918  -0.1145842  -0.1776859   0.2020193  -0.1064098   0.1436047
  -0.0888798   0.1052517  -0.1026975  -0.3824224  -0.0023686   0.0592244
  -0.3342180  -0.0500620  -0.1362454  -0.6940092  -0.1610598   0.5923936
   0.2585704   0.1675566   0.2706938   0.1574445  -0.0000349   0.3738249
   1.1773988   1.4145396  -0.7873849   0.1838738  -0.0411209   0.0525773
   0.5632269   0.0215728  -0.9653326   0.1596632  -1.1212198  -0.1168600
  -0.2914346  -0.0350216   0.2094353   0.6259025   0.5289214   0.5685048
  -0.2928128   0.3087654  -0.0202381   0.1441949  -0.1531401  -0.2079972
  -0.0851625  -0.2000283   0.9884421  -0.2269168   0.0805458  -1.2718438
  -0.2727811   0.1509807   0.3806752   0.2007552   0.2946023   0.4406926
  -0.2490026   0.1047295   0.6802213   0.4391093  -0.5282218   0.4678119
   0.4877627  -0.4259295   0.4103960  -0.5309948  -0.1017934   0.4472690
  -0.2696219  -0.0808866   0.0708761  -0.8101235  -0.6963092   0.1317864
   0.2672151   1.0088286  -0.1025016   0.1557944  -0.1791612   0.0371505
   0.4027929  -0.2111396   0.4761369   0.4092296   0.3300662  -0.0775270
  -0.2824827  -0.1543335  -0.1889915  -1.1391458  -0.1605918  -0.2717581
   1.4897560  -0.8631136  -0.0145818   0.3242798  -0.0234184  -0.0399621
  -0.4939958   0.9421847  -0.4065385  -0.3554713  -1.0027028   0.2133008
   0.1578145  -0.3892747  -0.0584358   0.3942628  -0.2304736  -0.3867235
  -0.0601385  -0.3329608   0.5739357   0.0199410  -0.2765471   0.0869588
   0.4118410   0.1720725  -1.0608597   0.5779719  -0.9715033   0.1279196
  -0.0562311  -0.0144641   0.0996905  -0.1026946   0.1027729   0.0753548
  -0.7578416   0.6097637   0.2686199  -0.3258115  -0.2280986  -0.3950807
  -1.1987388   0.1825048  -1.6043657   0.9877859   0.4705995  -0.6494093
   0.0219221  -0.2324083  -0.1241726  -0.2148970  -1.3548135  -0.3085579
   0.0130276  -0.3542497  -0.1516453   0.0863122   0.1512879   0.0421147
   0.2594770   0.6116256  -1.0166353  -1.1063883   1.0042494   0.9376476
   0.0718683  -0.0118338  -0.0455008  -0.1118271   0.7950490  -0.4249509
  -0.3268640   0.4264986  -0.1540479  -0.1524482  -0.0612372   0.1485807
   0.2973121  -0.1762687   0.6309807   0.5273927   0.1159071   0.1914835
   0.1785774  -0.1111310   0.2231311   0.1454851   0.2684805  -0.1689322
  -0.2144393   0.2592574  -0.9190209  -0.0994793  -0.1339741  -0.1155739
   0.6884684  -0.7483206   0.2784673  -0.2026385   0.9009400  -0.3873152
  -0.3446737  -0.0220738   0.0785624  -0.3994659  -0.0128579   1.1014992
  -0.6968947   0.4790198   0.1337390  -0.2109000  -0.2086945  -0.1236080
  -0.5010940   0.0463432   0.1655110  -0.0419755   1.0985219   0.4907169
  -0.1693538  -0.0651450  -0.3766729  -0.5605642  -0.2654417  -1.0116627
  -0.3321756   0.0304553  -0.3648942  -0.0285864   0.3188930   0.2449135
  -0.9760754  -0.0655873   1.1082539   0.3656173   0.0822176   0.1473122
   0.3597477   0.2073732   0.0042187   1.1570470   0.0278995   0.1238985
   0.7371168  -0.5591680   0.2546923  -0.1419729   0.4329648  -0.1554897
   0.0908550   0.1673534  -0.1356973   0.0501856   0.7070975  -0.1644195
   0.2597972   0.1735826   0.0873792   0.2659938  -0.2041786   0.7881226
  -0.1342620   0.2455679  -1.0170710   0.4195086  -0.2628157  -0.0009733
   1.5010639  -0.1800966   0.1504387  -0.4914152  -0.1463901  -1.3869252
  -0.0251573  -0.1614725  -0.2326108  -0.9351300  -0.3296466   1.2785146
   0.1980119  -0.1563719  -0.4330721   0.0099761   0.0615922   0.0514686
   0.0628926   0.1712266  -0.2514103  -0.4336853  -1.4777112   0.0614036
   0.3047153   0.2884017   0.3561585   0.2778494  -0.1658107   0.8823773
   0.2727329   0.2436223   0.1826777   0.0221046  -0.1225710   0.4006704
   0.2437416   0.9212729   0.4373975  -0.0771624  -0.5895022   0.3842334
  -0.2609518  -0.2227599   0.0553602   0.1164463   0.4776186   1.0140612
  -0.4862045  -0.0099331   0.5233754  -0.0018673  -0.2772186  -0.1470745
   0.0652078  -1.0197552   0.1017053  -0.3608943  -0.1752835  -0.4810488
   0.2043712   0.1910265   0.0890544  -0.1512415   0.2898922  -0.1297661
   0.3310583   0.4672655   0.2296811  -0.2797696   0.0697099   0.2548778
  -0.0756647   0.6789127  -0.2322477  -0.4545689  -0.0438138   1.0171103
   0.0005777   0.0166198   0.0120087  -0.3678645  -0.1208558  -0.0253031
   0.0537988   0.8674269   0.0021476   0.0049322   0.3807020  -0.1131145
  -0.5883854   0.7149260  -0.3007697  -0.7177878  -0.1243871  -1.1092982
   0.6097517   0.2393391   0.1736712   0.0701387  -0.0674016  -1.5997835
   0.1459010   0.0035199  -1.1824116  -0.0329212  -0.3975815  -0.0355701
   0.0042950   0.9908830   0.2092065  -0.2887439   0.8902916   1.0381823
   0.1595141   0.0065215  -0.0599358   0.2407179  -0.0455125  -0.0586870
  -0.2992473   0.3107655  -1.6518411  -0.2286372  -0.0118096  -0.1607826
   0.3679507   0.5398234   0.0417428  -0.0192391  -0.5917608   0.0627954
   0.1664620   0.1422612  -0.2851604  -0.1044395  -0.0073529  -1.2950429
  -1.1124727  -0.4460173   0.0827106   0.4969260   0.1980348   0.0984080
   1.4256332  -0.1871625   0.7963293   0.9385325   0.7939888   0.5931240
   0.0684136   0.0919407  -0.1569758   0.2567474   0.3351395   0.2719731
  -0.1114968  -0.1827827  -0.6236386   0.4295745  -0.0775257   0.0595307
   0.3139818  -0.4458671  -0.2493682   0.0462884   0.1207844   0.0728861
   0.0180035   0.2178683   0.0772235  -0.2309709   0.0398134   0.2770568
   0.1087159   0.0348771  -0.3466791   0.0427490  -0.1711792  -0.0077380
   0.2821106  -0.3674138  -0.1417632   0.1483535  -0.2838846   0.1297416
   0.2215461   0.0643551   0.1420077   0.0109806  -0.1586565   0.1575220
   0.1890858   0.1864984  -0.0801293   0.0994281   0.0187513  -0.1661086
   0.0467750   0.8798050  -1.3936260   1.0056664  -0.1267929   0.8540715
  -0.1328584  -0.0561073   0.0036208  -0.4765809   0.5250942   0.1479554
   0.5165017   0.3647969   0.2488642  -0.0972970   0.0028875   0.1115719
   0.8328402   0.4681698   0.3655910   0.5357442  -0.9672162  -0.0922971
  -0.0764191   0.0664206   0.1637044  -0.5080567   1.1894589   0.6659001
  -0.4005039  -0.4773660   0.5163915  -0.1557630  -0.0584954  -0.1268633
  -0.0440239   0.1690732   0.7485348  -0.3407033  -0.0771362  -0.1877544
   0.0308394  -0.1364113   0.1560858  -0.0932127   0.2685394   0.1536843
  -0.6402689   0.6657500  -0.4078403  -0.0893158  -0.3428632  -0.1260979
   0.2488864  -0.4665141  -0.0135256  -0.4268930  -0.1429533  -0.3164821
   0.1831081  -0.0996186  -0.0974639  -0.5903424  -0.7496597  -0.3339906
   0.0254892   0.5899802  -0.8881885  -0.0408850   0.5477958   0.1171490
  -0.1615780   0.6106596  -0.1850025   0.0802651   0.2142720  -0.5586451
   0.0117917  -0.0740338   0.1343136   0.6710373   0.6100043   0.0632967
   0.7155849  -0.5547084   0.8345549   0.1362766  -0.0578244  -0.0131173
  -0.6105838   0.9442233  -0.1644511   0.0095138  -1.3998436  -1.2278399
   0.0230066  -0.2895845   0.1514911   0.1923517  -0.5163100   0.0580558
   0.7616311  -0.6583081  -0.7494209   0.2804646  -0.2259644  -0.1916315
  -0.4698137  -0.7204349  -0.8774076  -0.0733655   0.1176384   0.5169678
   0.0475456  -0.1348545  -0.2506704   0.4987282   0.4618196   0.5309573
  -0.8238005  -0.7268544   0.1740501   0.3882976   0.2149675  -0.1884652
   0.1942553  -0.3617516  -0.0358905   0.0527609   0.3550675  -0.7059393
  86.7917264  71.6118015  89.1526075  90.0000000  90.0000000  90.0000000
